ITEM: TIMESTEP
0
ITEM: NUMBER OF ATOMS
7800
ITEM: BOX BOUNDS pp pp pp
0.0000000000000000e+00 4.0640099999999997e+01
0.0000000000000000e+00 4.0640099999999997e+01
0.0000000000000000e+00 1.8407236603850316e+02
ITEM: ATOMS id v_xi
3904 1
3941 1
3944 1
3981 1
3984 1
4021 1
4024 1
4061 1
4064 1
4101 1
4104 1
4141 1
4221 1
4144 1
4181 1
4184 1
3901 1
4224 1
4261 1
4264 1
4741 1
4781 1
4304 1
4341 1
4344 1
4381 1
4461 1
4821 1
4861 1
4384 1
4421 1
4424 1
4464 1
4501 1
4504 1
4541 1
4901 1
4941 1
4544 1
4581 1
4584 1
4621 1
4981 1
5021 1
4301 1
4624 1
4661 1
4664 1
4701 1
5061 1
4704 1
4744 1
5104 1
5141 1
5144 1
5181 1
4784 1
4824 1
5184 1
5221 1
5224 1
5261 1
4864 1
4904 1
5264 1
5301 1
5304 1
5341 1
5421 1
4944 1
4984 1
5344 1
5381 1
5384 1
5101 1
5424 1
5461 1
5464 1
5024 1
5064 1
5504 1
5541 1
5544 1
5581 1
5904 1
5941 1
5944 1
5981 1
5661 1
5984 1
6021 1
6024 1
6061 1
5584 1
5621 1
5624 1
5664 1
5701 1
5704 1
5741 1
6064 1
6101 1
6104 1
6141 1
5821 1
6144 1
6181 1
6184 1
6221 1
5744 1
5781 1
5784 1
5501 1
5824 1
5861 1
5864 1
5901 1
6224 1
6261 1
6264 1
6304 1
6341 1
6344 1
6381 1
6741 1
6781 1
6384 1
6421 1
6424 1
6461 1
6821 1
6861 1
6901 1
6941 1
6464 1
6501 1
6504 1
6541 1
6621 1
6981 1
7021 1
6544 1
6581 1
6584 1
6301 1
6624 1
6661 1
6664 1
6701 1
7061 1
6704 1
6744 1
7131 1
7161 1
6784 1
6824 1
7191 1
7221 1
6864 1
6904 1
7251 1
7281 1
6944 1
6984 1
7311 1
7341 1
7024 1
7064 1
7101 1
7371 1
3121 1
3124 1
3161 1
3164 1
3441 1
3471 1
3041 1
3044 1
3081 1
3084 1
3381 1
3411 1
2961 1
2964 1
3001 1
3004 1
3321 1
3351 1
2881 1
2884 1
2921 1
2924 1
3261 1
3291 1
3201 1
3231 1
2801 1
2804 1
2841 1
2844 1
2321 1
2324 1
2361 1
2364 1
2721 1
2724 1
2761 1
2764 1
2641 1
2644 1
2681 1
2684 1
2241 1
2244 1
2281 1
2284 1
2161 1
2164 1
2201 1
2204 1
2561 1
2564 1
2601 1
2604 1
2481 1
2484 1
2521 1
2524 1
2081 1
2084 1
2121 1
2124 1
2001 1
2004 1
2041 1
2044 1
2401 1
2404 1
2441 1
2444 1
1524 1
1564 1
1921 1
1924 1
1961 1
1964 1
1444 1
1484 1
1841 1
1844 1
1881 1
1884 1
1364 1
1404 1
1761 1
1764 1
1801 1
1804 1
1721 1
1724 1
1284 1
1324 1
1681 1
1684 1
1601 1
1604 1
1641 1
1644 1
1204 1
1244 1
724 1
764 1
1121 1
1124 1
1161 1
1164 1
1521 1
1561 1
1041 1
1044 1
1081 1
1084 1
1441 1
1481 1
644 1
684 1
564 1
604 1
961 1
964 1
1001 1
1004 1
1361 1
1401 1
881 1
884 1
921 1
924 1
1281 1
1321 1
484 1
524 1
404 1
444 1
801 1
804 1
841 1
844 1
1201 1
1241 1
321 1
324 1
361 1
364 1
721 1
761 1
241 1
244 1
281 1
284 1
641 1
681 1
561 1
601 1
161 1
164 1
201 1
204 1
121 1
124 1
481 1
521 1
81 1
84 1
1 1
4 1
41 1
44 1
401 1
441 1
3938 2
3978 2
3979 2
4019 2
4018 2
4058 2
4059 2
4099 2
4098 2
4138 2
4139 2
4179 2
4218 2
4219 2
4259 2
4178 2
3939 2
4258 2
4298 2
4299 2
4738 2
4778 2
4338 2
4378 2
4379 2
4419 2
4458 2
4459 2
4499 2
4818 2
4858 2
4418 2
4498 2
4538 2
4539 2
4579 2
4898 2
4938 2
4578 2
4618 2
4619 2
4659 2
4978 2
5018 2
4339 2
4658 2
4698 2
4699 2
5058 2
5098 2
4779 2
4819 2
5138 2
5178 2
5179 2
5219 2
4859 2
4899 2
5218 2
5258 2
5259 2
5299 2
4939 2
4979 2
5298 2
5338 2
5339 2
5379 2
5418 2
5419 2
5459 2
5019 2
5059 2
5378 2
5139 2
5458 2
5498 2
5499 2
4739 2
5099 2
5538 2
5578 2
5579 2
5619 2
5938 2
5978 2
5979 2
6019 2
5658 2
5659 2
5699 2
6018 2
6058 2
6059 2
6099 2
5618 2
5698 2
5738 2
5739 2
5779 2
6098 2
6138 2
6139 2
6179 2
5818 2
5819 2
5859 2
6178 2
6218 2
6219 2
6259 2
5778 2
5539 2
5858 2
5898 2
5899 2
5939 2
6258 2
6298 2
6299 2
6338 2
6378 2
6379 2
6419 2
6738 2
6778 2
6418 2
6458 2
6459 2
6499 2
6818 2
6858 2
6898 2
6938 2
6498 2
6538 2
6539 2
6579 2
6618 2
6619 2
6659 2
6978 2
7018 2
6578 2
6339 2
6658 2
6698 2
6699 2
7058 2
7098 2
6779 2
6819 2
7128 2
7158 2
7159 2
7189 2
7418 2
7438 2
6859 2
6899 2
7188 2
7218 2
7219 2
7249 2
7458 2
7478 2
6939 2
6979 2
7248 2
7278 2
7279 2
7309 2
7498 2
7518 2
7019 2
7059 2
7308 2
7338 2
7339 2
7369 2
7538 2
7558 2
7578 2
7598 2
6739 2
7099 2
7129 2
7368 2
7398 2
7399 2
7699 2
7439 2
7459 2
7618 2
7638 2
7639 2
7659 2
7718 2
7719 2
7739 2
7479 2
7499 2
7658 2
7678 2
7679 2
7758 2
7759 2
7779 2
7519 2
7539 2
7698 2
7599 2
7619 2
7778 2
7798 2
7799 2
7559 2
7579 2
7738 2
7419 2
3122 2
3123 2
3162 2
3163 2
3442 2
3472 2
3042 2
3043 2
3082 2
3083 2
3382 2
3412 2
2962 2
2963 2
3002 2
3003 2
3322 2
3352 2
2882 2
2883 2
2922 2
2923 2
3262 2
3292 2
3202 2
3232 2
2802 2
2803 2
2842 2
2843 2
2322 2
2323 2
2362 2
2363 2
2722 2
2723 2
2762 2
2763 2
2642 2
2643 2
2682 2
2683 2
2242 2
2243 2
2282 2
2283 2
2162 2
2163 2
2202 2
2203 2
2562 2
2563 2
2602 2
2603 2
2482 2
2483 2
2522 2
2523 2
2082 2
2083 2
2122 2
2123 2
2002 2
2003 2
2042 2
2043 2
2402 2
2403 2
2442 2
2443 2
1523 2
1563 2
1922 2
1923 2
1962 2
1963 2
1443 2
1483 2
1842 2
1843 2
1882 2
1883 2
1363 2
1403 2
1762 2
1763 2
1802 2
1803 2
1722 2
1723 2
1283 2
1323 2
1682 2
1683 2
1602 2
1603 2
1642 2
1643 2
1203 2
1243 2
723 2
763 2
1122 2
1123 2
1162 2
1163 2
1522 2
1562 2
1042 2
1043 2
1082 2
1083 2
1442 2
1482 2
643 2
683 2
563 2
603 2
962 2
963 2
1002 2
1003 2
1362 2
1402 2
882 2
883 2
922 2
923 2
1282 2
1322 2
483 2
523 2
403 2
443 2
802 2
803 2
842 2
843 2
1202 2
1242 2
322 2
323 2
362 2
363 2
722 2
762 2
242 2
243 2
282 2
283 2
642 2
682 2
562 2
602 2
162 2
163 2
202 2
203 2
122 2
123 2
482 2
522 2
82 2
83 2
2 2
3 2
42 2
43 2
402 2
442 2
3940 3
3977 3
3980 3
4017 3
4020 3
4057 3
4060 3
4097 3
4100 3
4137 3
4140 3
4177 3
4217 3
4220 3
4257 3
4180 3
3937 3
4260 3
4297 3
4300 3
4777 3
4817 3
4340 3
4377 3
4380 3
4417 3
4457 3
4460 3
4497 3
4857 3
4897 3
4420 3
4500 3
4537 3
4540 3
4577 3
4937 3
4977 3
4580 3
4617 3
4620 3
4657 3
5017 3
5057 3
4337 3
4660 3
4697 3
4700 3
4737 3
5097 3
4740 3
4780 3
5140 3
5177 3
5180 3
5217 3
4820 3
4860 3
5220 3
5257 3
5260 3
5297 3
4900 3
4940 3
5300 3
5337 3
5340 3
5377 3
5417 3
5420 3
5457 3
4980 3
5020 3
5380 3
5137 3
5460 3
5497 3
5500 3
5060 3
5100 3
5540 3
5577 3
5580 3
5617 3
5940 3
5977 3
5980 3
6017 3
5657 3
5660 3
5697 3
6020 3
6057 3
6060 3
6097 3
5620 3
5700 3
5737 3
5740 3
5777 3
6100 3
6137 3
6140 3
6177 3
5817 3
5820 3
5857 3
6180 3
6217 3
6220 3
6257 3
5780 3
5537 3
5860 3
5897 3
5900 3
5937 3
6260 3
6297 3
6300 3
6340 3
6377 3
6380 3
6417 3
6777 3
6817 3
6420 3
6457 3
6460 3
6497 3
6857 3
6897 3
6937 3
6977 3
6500 3
6537 3
6540 3
6577 3
6617 3
6620 3
6657 3
7017 3
7057 3
6580 3
6337 3
6660 3
6697 3
6700 3
6737 3
7097 3
6740 3
6780 3
7130 3
7157 3
7160 3
7187 3
7437 3
7457 3
6820 3
6860 3
7190 3
7217 3
7220 3
7247 3
7477 3
7497 3
6900 3
6940 3
7250 3
7277 3
7280 3
7307 3
7517 3
7537 3
6980 3
7020 3
7310 3
7337 3
7340 3
7367 3
7557 3
7577 3
7597 3
7060 3
7100 3
7127 3
7370 3
7397 3
7400 3
7417 3
7697 3
7420 3
7440 3
7620 3
7637 3
7640 3
7657 3
7720 3
7737 3
7460 3
7480 3
7660 3
7677 3
7680 3
7740 3
7757 3
7760 3
7777 3
7500 3
7520 3
7700 3
7717 3
7600 3
7617 3
7780 3
7797 3
7800 3
7540 3
7560 3
7580 3
3125 3
3128 3
3165 3
3168 3
3443 3
3473 3
3045 3
3048 3
3085 3
3088 3
3383 3
3413 3
2965 3
2968 3
3005 3
3008 3
3323 3
3353 3
2885 3
2888 3
2925 3
2928 3
3263 3
3293 3
3203 3
3233 3
2805 3
2808 3
2845 3
2848 3
2325 3
2328 3
2365 3
2368 3
2725 3
2728 3
2765 3
2768 3
2645 3
2648 3
2685 3
2688 3
2245 3
2248 3
2285 3
2288 3
2165 3
2168 3
2205 3
2208 3
2565 3
2568 3
2605 3
2608 3
2485 3
2488 3
2525 3
2528 3
2085 3
2088 3
2125 3
2128 3
2005 3
2008 3
2045 3
2048 3
2405 3
2408 3
2445 3
2448 3
1528 3
1568 3
1925 3
1928 3
1965 3
1968 3
1448 3
1488 3
1845 3
1848 3
1885 3
1888 3
1368 3
1408 3
1765 3
1768 3
1805 3
1808 3
1725 3
1728 3
1288 3
1328 3
1685 3
1688 3
1605 3
1608 3
1645 3
1648 3
1208 3
1248 3
728 3
768 3
1125 3
1128 3
1165 3
1168 3
1525 3
1565 3
1045 3
1048 3
1085 3
1088 3
1445 3
1485 3
648 3
688 3
568 3
608 3
965 3
968 3
1005 3
1008 3
1365 3
1405 3
885 3
888 3
925 3
928 3
1285 3
1325 3
488 3
528 3
408 3
448 3
805 3
808 3
845 3
848 3
1205 3
1245 3
325 3
328 3
365 3
368 3
725 3
765 3
245 3
248 3
285 3
288 3
645 3
685 3
565 3
605 3
165 3
168 3
205 3
208 3
125 3
128 3
485 3
525 3
85 3
88 3
5 3
8 3
45 3
48 3
405 3
445 3
3934 4
3974 4
3975 4
4015 4
4014 4
4054 4
4055 4
4095 4
4094 4
4134 4
4135 4
4175 4
4255 4
4174 4
4214 4
4215 4
3935 4
4254 4
4294 4
4295 4
4734 4
4774 4
4334 4
4374 4
4375 4
4415 4
4495 4
4814 4
4854 4
4414 4
4454 4
4455 4
4494 4
4534 4
4535 4
4575 4
4894 4
4934 4
4574 4
4614 4
4615 4
4655 4
4974 4
5014 4
4335 4
4654 4
4694 4
4695 4
5054 4
5094 4
4775 4
4815 4
5134 4
5174 4
5175 4
5215 4
4855 4
4895 4
5214 4
5254 4
5255 4
5295 4
4935 4
4975 4
5294 4
5334 4
5335 4
5375 4
5455 4
5015 4
5055 4
5374 4
5414 4
5415 4
5135 4
5454 4
5494 4
5495 4
4735 4
5095 4
5534 4
5574 4
5575 4
5615 4
5934 4
5974 4
5975 4
6015 4
5695 4
6014 4
6054 4
6055 4
6095 4
5614 4
5654 4
5655 4
5694 4
5734 4
5735 4
5775 4
6094 4
6134 4
6135 4
6175 4
5855 4
6174 4
6214 4
6215 4
6255 4
5774 4
5814 4
5815 4
5535 4
5854 4
5894 4
5895 4
5935 4
6254 4
6294 4
6295 4
6334 4
6374 4
6375 4
6415 4
6734 4
6774 4
6414 4
6454 4
6455 4
6495 4
6814 4
6854 4
6894 4
6934 4
6494 4
6534 4
6535 4
6575 4
6655 4
6974 4
7014 4
6574 4
6614 4
6615 4
6335 4
6654 4
6694 4
6695 4
7054 4
7094 4
6775 4
6815 4
7124 4
7154 4
7155 4
7185 4
7414 4
7434 4
6855 4
6895 4
7184 4
7214 4
7215 4
7245 4
7454 4
7474 4
6935 4
6975 4
7244 4
7274 4
7275 4
7305 4
7494 4
7514 4
7015 4
7055 4
7304 4
7334 4
7335 4
7365 4
7534 4
7554 4
7594 4
6735 4
7095 4
7125 4
7364 4
7394 4
7395 4
7574 4
7435 4
7455 4
7614 4
7634 4
7635 4
7655 4
7735 4
7475 4
7495 4
7654 4
7674 4
7675 4
7695 4
7754 4
7755 4
7775 4
7515 4
7535 4
7694 4
7714 4
7715 4
7615 4
7774 4
7794 4
7795 4
7555 4
7575 4
7734 4
7415 4
7595 4
3126 4
3127 4
3166 4
3167 4
3444 4
3474 4
3046 4
3047 4
3086 4
3087 4
3384 4
3414 4
2966 4
2967 4
3006 4
3007 4
3324 4
3354 4
2886 4
2887 4
2926 4
2927 4
3264 4
3294 4
3204 4
3234 4
2806 4
2807 4
2846 4
2847 4
2326 4
2327 4
2366 4
2367 4
2726 4
2727 4
2766 4
2767 4
2646 4
2647 4
2686 4
2687 4
2246 4
2247 4
2286 4
2287 4
2166 4
2167 4
2206 4
2207 4
2566 4
2567 4
2606 4
2607 4
2486 4
2487 4
2526 4
2527 4
2086 4
2087 4
2126 4
2127 4
2006 4
2007 4
2046 4
2047 4
2406 4
2407 4
2446 4
2447 4
1527 4
1567 4
1926 4
1927 4
1966 4
1967 4
1447 4
1487 4
1846 4
1847 4
1886 4
1887 4
1367 4
1407 4
1766 4
1767 4
1806 4
1807 4
1726 4
1727 4
1287 4
1327 4
1686 4
1687 4
1606 4
1607 4
1646 4
1647 4
1207 4
1247 4
727 4
767 4
1126 4
1127 4
1166 4
1167 4
1526 4
1566 4
1046 4
1047 4
1086 4
1087 4
1446 4
1486 4
647 4
687 4
567 4
607 4
966 4
967 4
1006 4
1007 4
1366 4
1406 4
886 4
887 4
926 4
927 4
1286 4
1326 4
487 4
527 4
407 4
447 4
806 4
807 4
846 4
847 4
1206 4
1246 4
326 4
327 4
366 4
367 4
726 4
766 4
246 4
247 4
286 4
287 4
646 4
686 4
566 4
606 4
166 4
167 4
206 4
207 4
126 4
127 4
486 4
526 4
86 4
87 4
6 4
7 4
46 4
47 4
406 4
446 4
3973 5
3976 5
4013 5
3936 5
4016 5
4053 5
4056 5
4093 5
4096 5
4133 5
4136 5
4173 5
4176 5
4213 5
4216 5
4253 5
4293 5
4296 5
3933 5
4256 5
4336 5
4373 5
4376 5
4413 5
4773 5
4813 5
4416 5
4453 5
4456 5
4493 5
4853 5
4893 5
4496 5
4533 5
4536 5
4573 5
4933 5
4973 5
4576 5
4613 5
4616 5
4653 5
5013 5
5053 5
4333 5
4656 5
4693 5
4696 5
4733 5
5093 5
5173 5
5176 5
5213 5
4736 5
4776 5
5136 5
5216 5
5253 5
5256 5
5293 5
4816 5
4856 5
4896 5
4936 5
5296 5
5333 5
5336 5
5373 5
4976 5
5016 5
5376 5
5413 5
5416 5
5453 5
5056 5
5096 5
5133 5
5456 5
5493 5
5496 5
5573 5
5576 5
5613 5
5936 5
5973 5
5976 5
6013 5
5536 5
5616 5
5653 5
5656 5
5693 5
6016 5
6053 5
6056 5
6093 5
5733 5
5736 5
5773 5
6096 5
6133 5
6136 5
6173 5
5696 5
5776 5
5813 5
5816 5
5853 5
6176 5
6213 5
6216 5
6253 5
5893 5
5896 5
5933 5
6256 5
6293 5
6296 5
5533 5
5856 5
6373 5
6376 5
6413 5
6773 5
6813 5
6336 5
6416 5
6453 5
6456 5
6493 5
6853 5
6893 5
6496 5
6533 5
6536 5
6573 5
6933 5
6973 5
6576 5
6613 5
6616 5
6653 5
7013 5
7053 5
6333 5
6656 5
6693 5
6696 5
6733 5
7093 5
6736 5
6776 5
7126 5
7153 5
7156 5
7183 5
7433 5
7453 5
7473 5
7493 5
6816 5
6856 5
7186 5
7213 5
7216 5
7243 5
7273 5
7276 5
7303 5
7513 5
7533 5
6896 5
6936 5
7246 5
7016 5
7306 5
7333 5
7336 5
7363 5
7553 5
7573 5
6976 5
7056 5
7096 5
7123 5
7366 5
7393 5
7396 5
7413 5
7593 5
7436 5
7616 5
7633 5
7636 5
7653 5
7456 5
7476 5
7656 5
7673 5
7676 5
7693 5
7416 5
7496 5
7516 5
7696 5
7713 5
7716 5
7733 5
7536 5
7556 5
7736 5
7753 5
7756 5
7773 5
7576 5
7596 5
7613 5
7776 5
7793 5
7796 5
3129 5
3132 5
3169 5
3172 5
3445 5
3475 5
3385 5
3415 5
3049 5
3052 5
3089 5
3092 5
3009 5
3012 5
3325 5
3355 5
2969 5
2972 5
2889 5
2892 5
2929 5
2932 5
3265 5
3295 5
2809 5
2812 5
2849 5
2852 5
3205 5
3235 5
2729 5
2732 5
2769 5
2772 5
2329 5
2332 5
2369 5
2372 5
2249 5
2252 5
2289 5
2292 5
2649 5
2652 5
2689 5
2692 5
2569 5
2572 5
2609 5
2612 5
2169 5
2172 5
2209 5
2212 5
2089 5
2092 5
2129 5
2132 5
2489 5
2492 5
2529 5
2532 5
2409 5
2412 5
2449 5
2452 5
2009 5
2012 5
2049 5
2052 5
1969 5
1972 5
1532 5
1572 5
1929 5
1932 5
1849 5
1852 5
1889 5
1892 5
1452 5
1492 5
1372 5
1412 5
1769 5
1772 5
1809 5
1812 5
1292 5
1332 5
1689 5
1692 5
1729 5
1732 5
1212 5
1252 5
1609 5
1612 5
1649 5
1652 5
1129 5
1132 5
1169 5
1172 5
1529 5
1569 5
732 5
772 5
652 5
692 5
1049 5
1052 5
1089 5
1092 5
1449 5
1489 5
969 5
972 5
1009 5
1012 5
1369 5
1409 5
572 5
612 5
492 5
532 5
889 5
892 5
929 5
932 5
1289 5
1329 5
809 5
812 5
849 5
852 5
1209 5
1249 5
412 5
452 5
369 5
372 5
729 5
769 5
329 5
332 5
249 5
252 5
289 5
292 5
649 5
689 5
169 5
172 5
209 5
212 5
569 5
609 5
89 5
92 5
129 5
132 5
489 5
529 5
9 5
12 5
49 5
52 5
409 5
449 5
3971 6
4011 6
3930 6
3970 6
4010 6
4050 6
4051 6
4091 6
4090 6
4130 6
4131 6
4171 6
4170 6
4210 6
4211 6
4251 6
4290 6
4291 6
3931 6
4250 6
4330 6
4370 6
4371 6
4411 6
4730 6
4770 6
4410 6
4450 6
4451 6
4491 6
4810 6
4850 6
4490 6
4530 6
4531 6
4571 6
4890 6
4930 6
4570 6
4610 6
4611 6
4651 6
4970 6
5010 6
4331 6
4650 6
4690 6
4691 6
5050 6
5090 6
5171 6
5211 6
4771 6
4811 6
5130 6
5170 6
5210 6
5250 6
5251 6
5291 6
4851 6
4891 6
4931 6
4971 6
5290 6
5330 6
5331 6
5371 6
5011 6
5051 6
5370 6
5410 6
5411 6
5451 6
4731 6
5091 6
5131 6
5450 6
5490 6
5491 6
5571 6
5611 6
5930 6
5970 6
5971 6
6011 6
5530 6
5570 6
5610 6
5650 6
5651 6
5691 6
6010 6
6050 6
6051 6
6091 6
5731 6
5771 6
6090 6
6130 6
6131 6
6171 6
5690 6
5730 6
5770 6
5810 6
5811 6
5851 6
6170 6
6210 6
6211 6
6251 6
5890 6
5891 6
5931 6
6250 6
6290 6
6291 6
5531 6
5850 6
6371 6
6411 6
6730 6
6770 6
6330 6
6370 6
6410 6
6450 6
6451 6
6491 6
6810 6
6850 6
6490 6
6530 6
6531 6
6571 6
6890 6
6930 6
6570 6
6610 6
6611 6
6651 6
6970 6
7010 6
6331 6
6650 6
6690 6
6691 6
7050 6
7090 6
6771 6
6811 6
7121 6
7151 6
7152 6
7182 6
7411 6
7431 6
7451 6
7471 6
6851 6
6891 6
7181 6
7211 6
7212 6
7242 6
7271 6
7272 6
7302 6
7491 6
7511 6
6931 6
6971 6
7241 6
7051 6
7301 6
7331 6
7332 6
7362 6
7531 6
7551 6
7011 6
6731 6
7091 6
7122 6
7361 6
7391 6
7392 6
7571 6
7591 6
7452 6
7611 6
7631 6
7632 6
7652 6
7472 6
7492 6
7651 6
7671 6
7672 6
7692 6
7432 6
7512 6
7532 6
7691 6
7711 6
7712 6
7732 6
7552 6
7572 6
7731 6
7751 6
7752 6
7772 6
7412 6
7592 6
7612 6
7771 6
7791 6
7792 6
3782 6
3802 6
3822 6
3842 6
3862 6
3882 6
3702 6
3722 6
3742 6
3762 6
3447 6
3477 6
3661 6
3662 6
3681 6
3682 6
3861 6
3881 6
3641 6
3642 6
3821 6
3841 6
3387 6
3417 6
3621 6
3622 6
3327 6
3357 6
3581 6
3582 6
3601 6
3602 6
3781 6
3801 6
3267 6
3297 6
3541 6
3542 6
3561 6
3562 6
3741 6
3761 6
3207 6
3237 6
3501 6
3502 6
3521 6
3522 6
3701 6
3721 6
3130 6
3131 6
3170 6
3171 6
3446 6
3476 6
3386 6
3416 6
3050 6
3051 6
3090 6
3091 6
3010 6
3011 6
3326 6
3356 6
2970 6
2971 6
2890 6
2891 6
2930 6
2931 6
3266 6
3296 6
2810 6
2811 6
2850 6
2851 6
3206 6
3236 6
2730 6
2731 6
2770 6
2771 6
2330 6
2331 6
2370 6
2371 6
2250 6
2251 6
2290 6
2291 6
2650 6
2651 6
2690 6
2691 6
2570 6
2571 6
2610 6
2611 6
2170 6
2171 6
2210 6
2211 6
2090 6
2091 6
2130 6
2131 6
2490 6
2491 6
2530 6
2531 6
2410 6
2411 6
2450 6
2451 6
2010 6
2011 6
2050 6
2051 6
1970 6
1971 6
1531 6
1571 6
1930 6
1931 6
1850 6
1851 6
1890 6
1891 6
1451 6
1491 6
1371 6
1411 6
1770 6
1771 6
1810 6
1811 6
1291 6
1331 6
1690 6
1691 6
1730 6
1731 6
1211 6
1251 6
1610 6
1611 6
1650 6
1651 6
1130 6
1131 6
1170 6
1171 6
1530 6
1570 6
731 6
771 6
651 6
691 6
1050 6
1051 6
1090 6
1091 6
1450 6
1490 6
970 6
971 6
1010 6
1011 6
1370 6
1410 6
571 6
611 6
491 6
531 6
890 6
891 6
930 6
931 6
1290 6
1330 6
810 6
811 6
850 6
851 6
1210 6
1250 6
411 6
451 6
370 6
371 6
730 6
770 6
330 6
331 6
250 6
251 6
290 6
291 6
650 6
690 6
170 6
171 6
210 6
211 6
570 6
610 6
90 6
91 6
130 6
131 6
490 6
530 6
10 6
11 6
50 6
51 6
410 6
450 6
3972 7
4009 7
3932 7
3969 7
4012 7
4049 7
4052 7
4089 7
4092 7
4129 7
4132 7
4169 7
4172 7
4209 7
4212 7
4249 7
4289 7
4292 7
3929 7
4252 7
4332 7
4369 7
4372 7
4409 7
4769 7
4809 7
4412 7
4449 7
4452 7
4489 7
4849 7
4889 7
4492 7
4529 7
4532 7
4569 7
4929 7
4969 7
4572 7
4609 7
4612 7
4649 7
5009 7
5049 7
4329 7
4652 7
4689 7
4692 7
4729 7
5089 7
5172 7
5209 7
4732 7
4772 7
5132 7
5169 7
5212 7
5249 7
5252 7
5289 7
4812 7
4852 7
4892 7
4932 7
5292 7
5329 7
5332 7
5369 7
4972 7
5012 7
5372 7
5409 7
5412 7
5449 7
5052 7
5092 7
5129 7
5452 7
5489 7
5492 7
5572 7
5609 7
5932 7
5969 7
5972 7
6009 7
5532 7
5569 7
5612 7
5649 7
5652 7
5689 7
6012 7
6049 7
6052 7
6089 7
5732 7
5769 7
6092 7
6129 7
6132 7
6169 7
5692 7
5729 7
5772 7
5809 7
5812 7
5849 7
6172 7
6209 7
6212 7
6249 7
5889 7
5892 7
5929 7
6252 7
6289 7
6292 7
5529 7
5852 7
6372 7
6409 7
6769 7
6809 7
6332 7
6369 7
6412 7
6449 7
6452 7
6489 7
6849 7
6889 7
6492 7
6529 7
6532 7
6569 7
6929 7
6969 7
6572 7
6609 7
6612 7
6649 7
7009 7
7049 7
6329 7
6652 7
6689 7
6692 7
6729 7
7089 7
6732 7
6772 7
7150 7
7180 7
6812 7
6852 7
7210 7
7240 7
7270 7
7300 7
6892 7
6932 7
7012 7
7330 7
7360 7
6972 7
7052 7
7092 7
7120 7
7390 7
3786 7
3806 7
3826 7
3846 7
3866 7
3886 7
3706 7
3726 7
3746 7
3766 7
3451 7
3481 7
3663 7
3666 7
3683 7
3686 7
3863 7
3883 7
3623 7
3626 7
3643 7
3646 7
3823 7
3843 7
3391 7
3421 7
3331 7
3361 7
3583 7
3586 7
3603 7
3606 7
3783 7
3803 7
3271 7
3301 7
3543 7
3546 7
3563 7
3566 7
3743 7
3763 7
3211 7
3241 7
3503 7
3506 7
3523 7
3526 7
3703 7
3723 7
3133 7
3136 7
3173 7
3176 7
3448 7
3478 7
3388 7
3418 7
3053 7
3056 7
3093 7
3096 7
3013 7
3016 7
3328 7
3358 7
2973 7
2976 7
2893 7
2896 7
2933 7
2936 7
3268 7
3298 7
2813 7
2816 7
2853 7
2856 7
3208 7
3238 7
2733 7
2736 7
2773 7
2776 7
2333 7
2336 7
2373 7
2376 7
2253 7
2256 7
2293 7
2296 7
2653 7
2656 7
2693 7
2696 7
2573 7
2576 7
2613 7
2616 7
2173 7
2176 7
2213 7
2216 7
2093 7
2096 7
2133 7
2136 7
2493 7
2496 7
2533 7
2536 7
2413 7
2416 7
2453 7
2456 7
2013 7
2016 7
2053 7
2056 7
1973 7
1976 7
1536 7
1576 7
1933 7
1936 7
1853 7
1856 7
1893 7
1896 7
1456 7
1496 7
1376 7
1416 7
1773 7
1776 7
1813 7
1816 7
1296 7
1336 7
1693 7
1696 7
1733 7
1736 7
1216 7
1256 7
1613 7
1616 7
1653 7
1656 7
1133 7
1136 7
1173 7
1176 7
1533 7
1573 7
736 7
776 7
656 7
696 7
1053 7
1056 7
1093 7
1096 7
1453 7
1493 7
973 7
976 7
1013 7
1016 7
1373 7
1413 7
576 7
616 7
496 7
536 7
893 7
896 7
933 7
936 7
1293 7
1333 7
813 7
816 7
853 7
856 7
1213 7
1253 7
416 7
456 7
373 7
376 7
733 7
773 7
333 7
336 7
253 7
256 7
293 7
296 7
653 7
693 7
173 7
176 7
213 7
216 7
573 7
613 7
93 7
96 7
133 7
136 7
493 7
533 7
13 7
16 7
53 7
56 7
413 7
453 7
4007 8
3926 8
3966 8
3967 8
4006 8
4046 8
4047 8
4087 8
4086 8
4126 8
4127 8
4167 8
4166 8
4206 8
4207 8
4247 8
4286 8
4287 8
3927 8
4246 8
4326 8
4366 8
4367 8
4407 8
4726 8
4766 8
4406 8
4446 8
4447 8
4487 8
4806 8
4846 8
4486 8
4526 8
4527 8
4567 8
4886 8
4926 8
4566 8
4606 8
4607 8
4647 8
4966 8
5006 8
4327 8
4646 8
4686 8
4687 8
5046 8
5086 8
5207 8
4767 8
4807 8
5126 8
5166 8
5167 8
5206 8
5246 8
5247 8
5287 8
4847 8
4887 8
4927 8
4967 8
5286 8
5326 8
5327 8
5367 8
5007 8
5047 8
5366 8
5406 8
5407 8
5447 8
4727 8
5087 8
5127 8
5446 8
5486 8
5487 8
5607 8
5926 8
5966 8
5967 8
6007 8
5526 8
5566 8
5567 8
5606 8
5646 8
5647 8
5687 8
6006 8
6046 8
6047 8
6087 8
5767 8
6086 8
6126 8
6127 8
6167 8
5686 8
5726 8
5727 8
5766 8
5806 8
5807 8
5847 8
6166 8
6206 8
6207 8
6247 8
5886 8
5887 8
5927 8
6246 8
6286 8
6287 8
5527 8
5846 8
6407 8
6726 8
6766 8
6326 8
6366 8
6367 8
6406 8
6446 8
6447 8
6487 8
6806 8
6846 8
6486 8
6526 8
6527 8
6567 8
6886 8
6926 8
6566 8
6606 8
6607 8
6647 8
6966 8
7006 8
6327 8
6646 8
6686 8
6687 8
7046 8
7086 8
6767 8
6807 8
7119 8
7149 8
6847 8
6887 8
7179 8
7209 8
6927 8
6967 8
7239 8
7269 8
7047 8
7299 8
7329 8
7007 8
6727 8
7087 8
7359 8
7389 8
3785 8
3805 8
3825 8
3845 8
3865 8
3885 8
3705 8
3725 8
3745 8
3765 8
3450 8
3480 8
3664 8
3665 8
3684 8
3685 8
3864 8
3884 8
3624 8
3625 8
3644 8
3645 8
3824 8
3844 8
3390 8
3420 8
3330 8
3360 8
3584 8
3585 8
3604 8
3605 8
3784 8
3804 8
3270 8
3300 8
3544 8
3545 8
3564 8
3565 8
3744 8
3764 8
3210 8
3240 8
3504 8
3505 8
3524 8
3525 8
3704 8
3724 8
3134 8
3135 8
3174 8
3175 8
3449 8
3479 8
3389 8
3419 8
3054 8
3055 8
3094 8
3095 8
3014 8
3015 8
3329 8
3359 8
2974 8
2975 8
2894 8
2895 8
2934 8
2935 8
3269 8
3299 8
2814 8
2815 8
2854 8
2855 8
3209 8
3239 8
2734 8
2735 8
2774 8
2775 8
2334 8
2335 8
2374 8
2375 8
2254 8
2255 8
2294 8
2295 8
2654 8
2655 8
2694 8
2695 8
2574 8
2575 8
2614 8
2615 8
2174 8
2175 8
2214 8
2215 8
2094 8
2095 8
2134 8
2135 8
2494 8
2495 8
2534 8
2535 8
2414 8
2415 8
2454 8
2455 8
2014 8
2015 8
2054 8
2055 8
1974 8
1975 8
1535 8
1575 8
1934 8
1935 8
1854 8
1855 8
1894 8
1895 8
1455 8
1495 8
1375 8
1415 8
1774 8
1775 8
1814 8
1815 8
1295 8
1335 8
1694 8
1695 8
1734 8
1735 8
1215 8
1255 8
1614 8
1615 8
1654 8
1655 8
1134 8
1135 8
1174 8
1175 8
1534 8
1574 8
735 8
775 8
655 8
695 8
1054 8
1055 8
1094 8
1095 8
1454 8
1494 8
974 8
975 8
1014 8
1015 8
1374 8
1414 8
575 8
615 8
495 8
535 8
894 8
895 8
934 8
935 8
1294 8
1334 8
814 8
815 8
854 8
855 8
1214 8
1254 8
415 8
455 8
374 8
375 8
734 8
774 8
334 8
335 8
254 8
255 8
294 8
295 8
654 8
694 8
174 8
175 8
214 8
215 8
574 8
614 8
94 8
95 8
134 8
135 8
494 8
534 8
14 8
15 8
54 8
55 8
414 8
454 8
3928 9
3965 9
3968 9
4005 9
4045 9
4048 9
4085 9
4008 9
4088 9
4125 9
4128 9
4165 9
4168 9
4205 9
4208 9
4245 9
3925 9
4248 9
4285 9
4288 9
4328 9
4365 9
4368 9
4405 9
4765 9
4805 9
4408 9
4445 9
4448 9
4485 9
4845 9
4885 9
4925 9
4965 9
4488 9
4525 9
4528 9
4565 9
4605 9
4608 9
4645 9
5005 9
5045 9
4568 9
4325 9
4648 9
4685 9
4688 9
4725 9
5085 9
4728 9
4768 9
5128 9
5165 9
5168 9
5205 9
4808 9
4848 9
5208 9
5245 9
5248 9
5285 9
4888 9
4928 9
5288 9
5325 9
5328 9
5365 9
4968 9
5008 9
5368 9
5405 9
5408 9
5445 9
5048 9
5088 9
5125 9
5448 9
5485 9
5488 9
5528 9
5565 9
5568 9
5605 9
5928 9
5965 9
5968 9
6005 9
5645 9
5648 9
5685 9
6008 9
6045 9
6048 9
6085 9
5608 9
5688 9
5725 9
5728 9
5765 9
6088 9
6125 9
6128 9
6165 9
5805 9
5808 9
5845 9
6168 9
6205 9
6208 9
6245 9
5768 9
5525 9
5848 9
5885 9
5888 9
5925 9
6248 9
6285 9
6288 9
6328 9
6365 9
6368 9
6405 9
6765 9
6805 9
6408 9
6445 9
6448 9
6485 9
6845 9
6885 9
6488 9
6525 9
6528 9
6565 9
6925 9
6965 9
6568 9
6605 9
6608 9
6645 9
7005 9
7045 9
6725 9
7085 9
6325 9
6648 9
6685 9
6688 9
6768 9
7148 9
7178 9
6728 9
6808 9
6848 9
7208 9
7238 9
6888 9
6928 9
7268 9
7298 9
6968 9
7008 9
7328 9
7358 9
7048 9
7088 9
7118 9
7388 9
3790 9
3810 9
3830 9
3850 9
3870 9
3890 9
3710 9
3730 9
3750 9
3770 9
3455 9
3485 9
3667 9
3670 9
3687 9
3690 9
3867 9
3887 9
3395 9
3425 9
3627 9
3630 9
3647 9
3650 9
3827 9
3847 9
3335 9
3365 9
3587 9
3590 9
3607 9
3610 9
3787 9
3807 9
3275 9
3305 9
3547 9
3550 9
3567 9
3570 9
3747 9
3767 9
3215 9
3245 9
3507 9
3510 9
3527 9
3530 9
3707 9
3727 9
3137 9
3140 9
3177 9
3180 9
3452 9
3482 9
3057 9
3060 9
3097 9
3100 9
3392 9
3422 9
2977 9
2980 9
3017 9
3020 9
3332 9
3362 9
2897 9
2900 9
2937 9
2940 9
3272 9
3302 9
2817 9
2820 9
2857 9
2860 9
3212 9
3242 9
2337 9
2340 9
2377 9
2380 9
2737 9
2740 9
2777 9
2780 9
2657 9
2660 9
2697 9
2700 9
2257 9
2260 9
2297 9
2300 9
2177 9
2180 9
2217 9
2220 9
2577 9
2580 9
2617 9
2620 9
2497 9
2500 9
2537 9
2540 9
2097 9
2100 9
2137 9
2140 9
2017 9
2020 9
2057 9
2060 9
2417 9
2420 9
2457 9
2460 9
1540 9
1580 9
1937 9
1940 9
1977 9
1980 9
1460 9
1500 9
1857 9
1860 9
1897 9
1900 9
1380 9
1420 9
1777 9
1780 9
1817 9
1820 9
1300 9
1340 9
1697 9
1700 9
1737 9
1740 9
1220 9
1260 9
1617 9
1620 9
1657 9
1660 9
740 9
780 9
1137 9
1140 9
1177 9
1180 9
1537 9
1577 9
1057 9
1060 9
1097 9
1100 9
1457 9
1497 9
660 9
700 9
580 9
620 9
977 9
980 9
1017 9
1020 9
1377 9
1417 9
897 9
900 9
937 9
940 9
1297 9
1337 9
500 9
540 9
420 9
460 9
817 9
820 9
857 9
860 9
1217 9
1257 9
337 9
340 9
377 9
380 9
737 9
777 9
257 9
260 9
297 9
300 9
657 9
697 9
177 9
180 9
217 9
220 9
577 9
617 9
97 9
100 9
137 9
140 9
497 9
537 9
417 9
457 9
17 9
20 9
57 9
60 9
3922 10
3962 10
3963 10
4003 10
4043 10
4083 10
4002 10
4042 10
4082 10
4122 10
4123 10
4163 10
4162 10
4202 10
4203 10
4243 10
3923 10
4242 10
4282 10
4283 10
4322 10
4362 10
4363 10
4403 10
4722 10
4762 10
4402 10
4442 10
4443 10
4483 10
4802 10
4842 10
4882 10
4922 10
4482 10
4522 10
4523 10
4563 10
4603 10
4643 10
4962 10
5002 10
4562 10
4602 10
4323 10
4642 10
4682 10
4683 10
5042 10
5082 10
4763 10
4803 10
5122 10
5162 10
5163 10
5203 10
4843 10
4883 10
5202 10
5242 10
5243 10
5283 10
4923 10
4963 10
5282 10
5322 10
5323 10
5363 10
5003 10
5043 10
5362 10
5402 10
5403 10
5443 10
4723 10
5083 10
5123 10
5442 10
5482 10
5483 10
5522 10
5562 10
5563 10
5603 10
5922 10
5962 10
5963 10
6003 10
5643 10
5683 10
6002 10
6042 10
6043 10
6083 10
5602 10
5642 10
5682 10
5722 10
5723 10
5763 10
6082 10
6122 10
6123 10
6163 10
5803 10
5843 10
6162 10
6202 10
6203 10
6243 10
5762 10
5802 10
5523 10
5842 10
5882 10
5883 10
5923 10
6242 10
6282 10
6283 10
6322 10
6362 10
6363 10
6403 10
6722 10
6762 10
6402 10
6442 10
6443 10
6483 10
6802 10
6842 10
6482 10
6522 10
6523 10
6563 10
6882 10
6922 10
6562 10
6602 10
6603 10
6643 10
6962 10
7002 10
7042 10
7082 10
6323 10
6642 10
6682 10
6683 10
6803 10
7117 10
7147 10
6763 10
6843 10
6883 10
7177 10
7207 10
6923 10
6963 10
7237 10
7267 10
7003 10
7043 10
7297 10
7327 10
6723 10
7083 10
7357 10
7387 10
3789 10
3809 10
3829 10
3849 10
3869 10
3889 10
3709 10
3729 10
3749 10
3769 10
3454 10
3484 10
3668 10
3669 10
3688 10
3689 10
3868 10
3888 10
3394 10
3424 10
3628 10
3629 10
3648 10
3649 10
3828 10
3848 10
3334 10
3364 10
3588 10
3589 10
3608 10
3609 10
3788 10
3808 10
3274 10
3304 10
3548 10
3549 10
3568 10
3569 10
3748 10
3768 10
3214 10
3244 10
3508 10
3509 10
3528 10
3529 10
3708 10
3728 10
3138 10
3139 10
3178 10
3179 10
3453 10
3483 10
3058 10
3059 10
3098 10
3099 10
3393 10
3423 10
2978 10
2979 10
3018 10
3019 10
3333 10
3363 10
2898 10
2899 10
2938 10
2939 10
3273 10
3303 10
2818 10
2819 10
2858 10
2859 10
3213 10
3243 10
2338 10
2339 10
2378 10
2379 10
2738 10
2739 10
2778 10
2779 10
2658 10
2659 10
2698 10
2699 10
2258 10
2259 10
2298 10
2299 10
2178 10
2179 10
2218 10
2219 10
2578 10
2579 10
2618 10
2619 10
2498 10
2499 10
2538 10
2539 10
2098 10
2099 10
2138 10
2139 10
2018 10
2019 10
2058 10
2059 10
2418 10
2419 10
2458 10
2459 10
1539 10
1579 10
1938 10
1939 10
1978 10
1979 10
1459 10
1499 10
1858 10
1859 10
1898 10
1899 10
1379 10
1419 10
1778 10
1779 10
1818 10
1819 10
1299 10
1339 10
1698 10
1699 10
1738 10
1739 10
1219 10
1259 10
1618 10
1619 10
1658 10
1659 10
739 10
779 10
1138 10
1139 10
1178 10
1179 10
1538 10
1578 10
1058 10
1059 10
1098 10
1099 10
1458 10
1498 10
659 10
699 10
579 10
619 10
978 10
979 10
1018 10
1019 10
1378 10
1418 10
898 10
899 10
938 10
939 10
1298 10
1338 10
499 10
539 10
419 10
459 10
818 10
819 10
858 10
859 10
1218 10
1258 10
338 10
339 10
378 10
379 10
738 10
778 10
258 10
259 10
298 10
299 10
658 10
698 10
178 10
179 10
218 10
219 10
578 10
618 10
98 10
99 10
138 10
139 10
498 10
538 10
418 10
458 10
18 10
19 10
58 10
59 10
3924 11
3961 11
3964 11
4001 11
4044 11
4081 11
4004 11
4041 11
4084 11
4121 11
4124 11
4161 11
4164 11
4201 11
4204 11
4241 11
3921 11
4244 11
4281 11
4284 11
4324 11
4361 11
4364 11
4401 11
4761 11
4801 11
4404 11
4441 11
4444 11
4481 11
4841 11
4881 11
4921 11
4961 11
4484 11
4521 11
4524 11
4561 11
4604 11
4641 11
5001 11
5041 11
4564 11
4601 11
4321 11
4644 11
4681 11
4684 11
4721 11
5081 11
4724 11
4764 11
5124 11
5161 11
5164 11
5201 11
4804 11
4844 11
5204 11
5241 11
5244 11
5281 11
4884 11
4924 11
5284 11
5321 11
5324 11
5361 11
4964 11
5004 11
5364 11
5401 11
5404 11
5441 11
5044 11
5084 11
5121 11
5444 11
5481 11
5484 11
5524 11
5561 11
5564 11
5601 11
5924 11
5961 11
5964 11
6001 11
5644 11
5681 11
6004 11
6041 11
6044 11
6081 11
5604 11
5641 11
5684 11
5721 11
5724 11
5761 11
6084 11
6121 11
6124 11
6161 11
5804 11
5841 11
6164 11
6201 11
6204 11
6241 11
5764 11
5801 11
5521 11
5844 11
5881 11
5884 11
5921 11
6244 11
6281 11
6284 11
6324 11
6361 11
6364 11
6401 11
6761 11
6801 11
6404 11
6441 11
6444 11
6481 11
6841 11
6881 11
6484 11
6521 11
6524 11
6561 11
6921 11
6961 11
6564 11
6601 11
6604 11
6641 11
7001 11
7041 11
6721 11
7081 11
6321 11
6644 11
6681 11
6684 11
6764 11
7146 11
7176 11
6724 11
6804 11
6844 11
7206 11
7236 11
6884 11
6924 11
7266 11
7296 11
6964 11
7004 11
7326 11
7356 11
7044 11
7084 11
7116 11
7386 11
3141 11
3144 11
3181 11
3184 11
3456 11
3486 11
3061 11
3064 11
3101 11
3104 11
3396 11
3426 11
2981 11
2984 11
3021 11
3024 11
3336 11
3366 11
2901 11
2904 11
2941 11
2944 11
3276 11
3306 11
2821 11
2824 11
2861 11
2864 11
3216 11
3246 11
2341 11
2344 11
2381 11
2384 11
2741 11
2744 11
2781 11
2784 11
2661 11
2664 11
2701 11
2704 11
2261 11
2264 11
2301 11
2304 11
2181 11
2184 11
2221 11
2224 11
2581 11
2584 11
2621 11
2624 11
2501 11
2504 11
2541 11
2544 11
2101 11
2104 11
2141 11
2144 11
2021 11
2024 11
2061 11
2064 11
2421 11
2424 11
2461 11
2464 11
1544 11
1584 11
1941 11
1944 11
1981 11
1984 11
1464 11
1504 11
1861 11
1864 11
1901 11
1904 11
1384 11
1424 11
1781 11
1784 11
1821 11
1824 11
1304 11
1344 11
1701 11
1704 11
1741 11
1744 11
1224 11
1264 11
1621 11
1624 11
1661 11
1664 11
744 11
784 11
1141 11
1144 11
1181 11
1184 11
1541 11
1581 11
1061 11
1064 11
1101 11
1104 11
1461 11
1501 11
664 11
704 11
584 11
624 11
981 11
984 11
1021 11
1024 11
1381 11
1421 11
901 11
904 11
941 11
944 11
1301 11
1341 11
504 11
544 11
424 11
464 11
821 11
824 11
861 11
864 11
1221 11
1261 11
341 11
344 11
381 11
384 11
741 11
781 11
261 11
264 11
301 11
304 11
661 11
701 11
181 11
184 11
221 11
224 11
581 11
621 11
101 11
104 11
141 11
144 11
501 11
541 11
421 11
461 11
21 11