LAMMPS data file via write_data, version 29 Sep 2021, timestep = 86

4000 atoms
2 atom types

0 40.6401 xlo xhi
0 40.6401 ylo yhi
0 85.34420999999999 zlo zhi

Masses

1 196.966569
2 39.95

Atoms # atomic

1 2 1.2200757316828041 1.216486926595219 0.5620225979298171 0 0 0
2 2 3.759724455393805 3.7603589170600964 0.5663188980385538 0 0 0
3 2 3.757849937913209 1.1963737460733812 3.2386296910251127 0 0 0
4 2 1.247830141197908 3.768651224680267 3.2373974153270124 0 0 0
5 2 6.289776360329946 1.212108241098195 0.5538114424097673 0 0 0
6 2 8.82017097259057 3.762974277303122 0.5624956532440644 0 0 0
7 2 8.825223548794549 1.20356112730214 3.2315651148071787 0 0 0
8 2 6.2909560128518525 3.7464998210309144 3.232441612414208 0 0 0
32 2 1.2230329226644931 6.297664344371211 0.5700356268062242 0 0 0
33 2 3.7662715716626445 8.833179404150261 0.5577834479596198 0 0 0
34 2 3.8292720089696757 6.366356588905651 3.2358922261038567 0 0 0
35 2 1.2048555588327323 8.827916440595487 3.2371750432357556 0 0 0
36 2 6.289935665445985 6.30975416929135 0.553965107791779 0 0 0
37 2 8.811438007899277 8.836500962934917 0.5522007157026491 0 0 0
38 2 8.755169144829965 6.370912791676456 3.2322388791781926 0 0 0
254 2 1.227269755240763 1.1565022311944173 5.903734015673779 0 0 0
255 2 3.7545205893669746 3.751400292011867 5.903337970341413 0 0 0
258 2 6.294849301261416 1.2173569710706207 5.9041764657887255 0 0 0
259 2 8.830339841473503 3.7628468251021947 5.898002506599887 0 0 0
285 2 1.231727726932534 6.300809199680587 5.901099410028617 0 0 0
286 2 3.777991222480463 8.834611394835026 5.913102574606281 0 0 0
289 2 6.2955574299039645 6.304781316711404 5.91557305475799 0 0 0
290 2 8.823888194419256 8.836427750653435 5.911920347764229 0 0 0
9 2 11.360896731684715 1.2195359899144664 0.556293347793123 0 0 0
10 2 13.90117008100994 3.7584872610719136 0.5550918574974205 0 0 0
11 2 13.89598200050858 1.223662939645538 3.223951531365863 0 0 0
12 2 11.338698624754755 3.778587391172543 3.228426088110913 0 0 0
13 2 16.447426611234754 1.219417660701712 0.5481535157458166 0 0 0
16 2 16.452250677051985 3.7515672751709395 3.2209400007881577 0 0 0
39 2 11.356869803419215 6.302209951478304 0.5605391683828764 0 0 0
40 2 13.910292463996377 8.834179658830374 0.5502036034591675 0 0 0
41 2 13.91179483594306 6.290928943994604 3.222947245013307 0 0 0
42 2 11.37752947955996 8.835945484119222 3.22823786435668 0 0 0
43 2 16.453877806483366 6.291926463163951 0.5497161799949831 0 0 0
46 2 16.45639941447287 8.83127127701547 3.2140668248829556 0 0 0
262 2 11.348986481494974 1.191983024752648 5.890562612931434 0 0 0
263 2 13.904501580858778 3.7460766050995002 5.893958682730858 0 0 0
266 2 16.46201510615662 1.2132516218949962 5.893326851808353 0 0 0
293 2 11.368499340928567 6.298943680402317 5.896309850298158 0 0 0
294 2 13.918523965608275 8.832821999658744 5.893497330210331 0 0 0
297 2 16.453366298580836 6.289534694411244 5.886370270685375 0 0 0
14 2 18.998175322761128 3.7535361903709115 0.5488347332864815 0 0 0
15 2 18.99786690873557 1.217196367993717 3.2183413513619623 0 0 0
17 2 21.541394427261228 1.2181927941192954 0.5483051790596021 0 0 0
18 2 24.166507094557975 3.676682995207997 0.5567496440738136 0 0 0
19 2 24.09360195743602 1.215933192340231 3.238191092496442 0 0 0
20 2 21.55078969621641 3.746792418921617 3.2194809868812446 0 0 0
44 2 19.014950335249836 8.819730821175481 0.5488649025807275 0 0 0
45 2 19.003565275494086 6.287216964098454 3.213474036912592 0 0 0
47 2 21.577674734031117 6.262830793014448 0.5516402742239881 0 0 0
48 2 24.09464921385956 8.834371141139037 0.5550409732040582 0 0 0
49 2 24.09318989684815 6.2804144328318605 3.2237602355480606 0 0 0
50 2 21.54999636194202 8.826204694575827 3.2150877969588727 0 0 0
267 2 18.998750227336686 3.757350583515603 5.89028914278781 0 0 0
270 2 21.52950741128738 1.2100199594869014 5.902000900967967 0 0 0
271 2 24.069332198000403 3.752064923318879 5.91328781804156 0 0 0
298 2 18.993457954420524 8.834909120356505 5.871792239885168 0 0 0
301 2 21.53782501605611 6.296045582310391 5.890021336906559 0 0 0
302 2 24.079463145301656 8.830789315907962 5.897143108824954 0 0 0
21 2 29.089536629529164 3.6707955084987676 0.5681512986708852 0 0 0
22 2 29.165932796967372 1.2146970735469307 3.2521521121535066 0 0 0
23 2 26.623645436326637 3.730068326276355 3.242616032947371 0 0 0
24 2 31.712873045028957 1.2090194319059555 0.5607679525717197 0 0 0
27 2 31.71520269464949 3.734757147494028 3.2302125924788414 0 0 0
51 2 26.63251365160977 6.296130563902392 0.5636066611317084 0 0 0
52 2 29.170890641774523 8.833382892631352 0.5645448751741716 0 0 0
53 2 29.167122723743113 6.267345927563191 3.237205040554364 0 0 0
54 2 26.634171113185996 8.82658682746736 3.234711866900893 0 0 0
55 2 31.675236233328413 6.259925731081143 0.5637816198448466 0 0 0
58 2 31.705478399453803 8.813641997086934 3.2353318434874883 0 0 0
274 2 26.61079336731987 1.2118705613107632 5.9289541552413185 0 0 0
275 2 29.164795082216788 3.735489179751763 5.9143721823938415 0 0 0
278 2 31.80962882459476 1.2528567286484198 5.906000055254659 0 0 0
305 2 26.618975141571813 6.282726944112393 5.907033139623505 0 0 0
306 2 29.190843955651072 8.798498292844847 5.8994990243184295 0 0 0
309 2 31.774294254551506 6.210641936175417 5.901022102952565 0 0 0
25 2 34.248434671792005 3.747724488275101 0.544938510581197 0 0 0
26 2 34.252987368751015 1.2173723995595012 3.2289821637436202 0 0 0
28 2 36.78988127867988 1.2137177621244473 0.5493580844634368 0 0 0
29 2 39.32573556885051 3.7532200328177243 0.5625569819327421 0 0 0
30 2 39.32281314519837 1.2155881572403315 3.2439849646960517 0 0 0
31 2 36.77164092771831 3.7473718287620352 3.2258307030014297 0 0 0
56 2 34.22790105646354 8.816858016490876 0.5623288086909006 0 0 0
57 2 34.23733723178937 6.264697447848321 3.227310189583135 0 0 0
59 2 36.78134220324959 6.288809235797164 0.5555493200906945 0 0 0
60 2 39.31219138399747 8.829246761802402 0.5637605128508224 0 0 0
61 2 39.3105095038633 6.281124482823746 3.2396009272936515 0 0 0
62 2 36.766913509692124 8.816195582425314 3.2366002039852413 0 0 0
281 2 36.708271060822256 1.2913715042742946 5.902080188309799 0 0 0
282 2 39.344826252243394 3.7442101758633717 5.901289212810257 0 0 0
310 2 34.23933621982507 8.832134152864665 5.900341844311278 0 0 0
313 2 36.7088181168191 6.208887393271824 5.901274910637455 0 0 0
314 2 39.28646488878908 8.802458833475876 5.904109050478517 0 0 0
63 2 1.2204089092264383 11.364811111070841 0.5698436212862142 0 0 0
64 2 3.7543323377925897 13.90938556407563 0.5679811733659631 0 0 0
65 2 3.827368998968549 11.296251389163233 3.235198801404352 0 0 0
66 2 1.2381634776538686 13.881350873727705 3.2331467238328613 0 0 0
67 2 6.287780414389052 11.362060283749216 0.5541374132235545 0 0 0
68 2 8.816378702532091 13.911805686137871 0.5607284316710659 0 0 0
69 2 8.757789532382523 11.300679375284993 3.230799197689239 0 0 0
70 2 6.291790497819489 13.92020929116008 3.2323575912909437 0 0 0
95 2 1.2113985069433222 16.458531723675847 0.5662196760389848 0 0 0
97 2 3.7504496275244055 16.45601709044698 3.2319986727332846 0 0 0
99 2 6.282391721664573 16.46841549361675 0.5645993478776662 0 0 0
101 2 8.822116425573121 16.46855838704248 3.226140099960364 0 0 0
317 2 1.2123788295437823 11.352195423087883 5.899150407941624 0 0 0
318 2 3.7563456467331977 13.896735831388932 5.896404534445108 0 0 0
321 2 6.301915470574402 11.362102003635256 5.912295505592967 0 0 0
322 2 8.835405920171297 13.913664016318094 5.896586743043652 0 0 0
349 2 1.2204918392521418 16.448419162326452 5.897111927330982 0 0 0
353 2 6.288077647059627 16.457949716792978 5.896128915290256 0 0 0
71 2 11.356804629479495 11.369308267404154 0.5572004985497916 0 0 0
72 2 13.907329236398407 13.906879346437359 0.5481180297342946 0 0 0
73 2 13.914451235952411 11.375696376854833 3.2179052930866643 0 0 0
74 2 11.339270456224277 13.888878780907222 3.2172857421173324 0 0 0
75 2 16.462566435548165 11.367843315358137 0.5470572733836078 0 0 0
78 2 16.459028555700066 13.911905652757111 3.210429275451773 0 0 0
103 2 11.361608052968553 16.453077206351107 0.5522874267292136 0 0 0
105 2 13.90351835814283 16.441312411649466 3.199426352803888 0 0 0
107 2 16.45519446439943 16.453014472758998 0.5463996750428168 0 0 0
325 2 11.373629732106517 11.376602187050821 5.89652035045805 0 0 0
326 2 13.912340979071761 13.922866532319018 5.8812720683139 0 0 0
329 2 16.451992185943975 11.380434919525758 5.885227814329113 0 0 0
357 2 11.384771778621857 16.44801518672761 5.8824079180512365 0 0 0
360 2 16.4399468591228 16.451017996534002 5.883880379334687 0 0 0
76 2 19.003864177117467 13.913560320141306 0.5482047768762282 0 0 0
77 2 19.00271932056732 11.370676303439419 3.213268389547349 0 0 0
79 2 21.5504478643928 11.373052923966867 0.550501026740504 0 0 0
80 2 24.09209415103233 13.91680574216223 0.5536770333182687 0 0 0
81 2 24.09062266543436 11.371019758265028 3.224275352970874 0 0 0
82 2 21.54493275888251 13.912735343630912 3.219786087303164 0 0 0
109 2 18.99877007417189 16.454906552816148 3.2195275705479682 0 0 0
111 2 21.544179311040153 16.45729178437244 0.5536527874886517 0 0 0
113 2 24.08643817517933 16.456257511620716 3.2220626679628035 0 0 0
330 2 18.992855183145632 13.917001710574688 5.887932063244529 0 0 0
333 2 21.53655327026429 11.372887779012421 5.886325197676666 0 0 0
334 2 24.086828761138964 13.904866017060883 5.892474849094073 0 0 0
364 2 21.544615555485123 16.450650177183345 5.8874994357873165 0 0 0
83 2 26.635655017511546 11.376748700652563 0.5573354518589259 0 0 0
84 2 29.174311356090566 13.925693581681003 0.5575572388269038 0 0 0
85 2 29.174172593409526 11.371790906282065 3.231693786118523 0 0 0
86 2 26.630857884261577 13.914624437398516 3.225497115659845 0 0 0
87 2 31.706974284709602 11.376831904800751 0.5616913706314951 0 0 0
90 2 31.708967112334623 13.928225218855696 3.2275419669000174 0 0 0
115 2 26.6319917574777 16.46527427964989 0.5554099703432714 0 0 0
117 2 29.16576740106178 16.467143320328738 3.2259191584432387 0 0 0
119 2 31.714552860927213 16.47798579134615 0.5580804121706856 0 0 0
337 2 26.635322753672842 11.359870278131641 5.897595923110791 0 0 0
338 2 29.164603066696444 13.917763351395651 5.894310110528064 0 0 0
341 2 31.70336860961583 11.375274179090773 5.897329085974177 0 0 0
368 2 26.621659705373638 16.456414631826643 5.891159042044287 0 0 0
372 2 31.70135791585282 16.469317226025684 5.894575926125161 0 0 0
88 2 34.24372874001169 13.925197809531433 0.5620755384025073 0 0 0
89 2 34.23664718298338 11.371981897080365 3.2291834617323683 0 0 0
91 2 36.7691565450895 11.367112633522897 0.5629881777314542 0 0 0
92 2 39.317176698531604 13.908228727858283 0.5674398347658127 0 0 0
93 2 39.30544924930525 11.364944367294582 3.23505476300542 0 0 0
94 2 36.7753596872977 13.917132213677228 3.2307158903158473 0 0 0
121 2 34.25347092071944 16.479725601244905 3.2288608305834035 0 0 0
123 2 36.78837743619392 16.46835174671877 0.5675700284609653 0 0 0
125 2 39.32782155876712 16.44722807723957 3.231479891774806 0 0 0
342 2 34.24006119182093 13.92435446604877 5.89674876494383 0 0 0
345 2 36.77352031608741 11.37508418815779 5.901434431183409 0 0 0
346 2 39.31978250214274 13.90949394776221 5.897864883194669 0 0 0
376 2 36.78534460829781 16.465159198552016 5.895065781623213 0 0 0
96 2 3.740061714080746 19.017368918922116 0.5731663087077624 0 0 0
98 2 1.2145572288874813 18.998288222499387 3.2332995886522338 0 0 0
100 2 8.827450174722163 19.006511436012534 0.5615793891650056 0 0 0
102 2 6.267899001952536 19.026629534914974 3.232967973776973 0 0 0
127 2 1.2068311821864175 21.57192560234016 0.5622582167533108 0 0 0
128 2 3.7423186452586368 24.0872406384988 0.5666238844734431 0 0 0
129 2 3.683577522137493 21.617624002561016 3.2353825707791097 0 0 0
130 2 6.288106354913314 21.552199997390176 0.5740486317844951 0 0 0
131 2 8.835239539591548 24.08759627144139 0.5589896540346093 0 0 0
132 2 8.840238228314265 21.539918004388273 3.2323582533323374 0 0 0
133 2 6.3044937289343626 24.08480584216071 3.2372687370852073 0 0 0
350 2 3.7502688932995345 19.007567794649162 5.894371035921745 0 0 0
354 2 8.840714664357865 18.990631750307884 5.899641962067582 0 0 0
380 2 1.2213251727925334 21.55872544442089 5.909096701349248 0 0 0
381 2 3.748138861229792 24.081744144417378 5.910869730945195 0 0 0
384 2 6.296464858334386 21.541776018886317 5.8988011192014005 0 0 0
385 2 8.842321605812563 24.079443291617096 5.903960026589345 0 0 0
104 2 13.909414911489337 18.99764848825764 0.5477842341637994 0 0 0
106 2 11.374274246923616 18.99688193864493 3.2181009006482695 0 0 0
110 2 16.45066840596418 18.991420663302826 3.215503412017732 0 0 0
134 2 11.372371013116009 21.54525617378635 0.5532287954782267 0 0 0
135 2 13.91062402506572 24.087790537020133 0.5528809514612846 0 0 0
136 2 13.913048420099242 21.53805196150921 3.222118480208667 0 0 0
137 2 11.375747388313254 24.083545913246393 3.22751261575143 0 0 0
138 2 16.450925903675408 21.541633092062042 0.5522749376930121 0 0 0
141 2 16.451378141377077 24.082674576125033 3.2234047135025827 0 0 0
358 2 13.914283837366817 18.975399732992564 5.884603568521862 0 0 0
388 2 11.381780288360323 21.52681452624921 5.899919493780751 0 0 0
389 2 13.912060776603251 24.0812706391713 5.889882082123839 0 0 0
392 2 16.449713111128368 21.530513664922655 5.894095429696244 0 0 0
108 2 18.996101803784217 18.997862176746928 0.5528819060890919 0 0 0
112 2 24.083361005837215 19.002300028375345 0.5561703876187497 0 0 0
114 2 21.538943108716957 18.999424162490545 3.2242595872117503 0 0 0
139 2 18.99183186883402 24.08320395575974 0.5523511997057351 0 0 0
140 2 18.99199200337941 21.537820846835604 3.2244041783541286 0 0 0
142 2 21.536333582706565 21.541087476571995 0.5541642213503435 0 0 0
143 2 24.078429042304215 24.082367478224402 0.5502898637161937 0 0 0
144 2 24.078223539062687 21.54597120994914 3.2236753972100605 0 0 0
145 2 21.533229359575596 24.08137838401941 3.2170919155434974 0 0 0
361 2 18.99201703796473 18.99252036546725 5.892906319559979 0 0 0
365 2 24.081195376109342 18.99967536172519 5.8876373927304595 0 0 0
393 2 18.994149073170934 24.082748497866696 5.893750984718033 0 0 0
396 2 21.537792828494204 21.546622476656562 5.894145166638435 0 0 0
397 2 24.074967168010097 24.102259420780406 5.887932987649381 0 0 0
116 2 29.172943211200725 19.013968059656964 0.5554621543969485 0 0 0
118 2 26.623727624479102 19.006770562719453 3.2248736087172816 0 0 0
122 2 31.703741677999076 19.012736857225708 3.228914001681147 0 0 0
146 2 26.623478263112993 21.545232129762915 0.555815501419014 0 0 0
147 2 29.165246900735237 24.085910502834643 0.557090255293855 0 0 0
148 2 29.162689866067886 21.55139604284278 3.2279173145070725 0 0 0
149 2 26.619537641996963 24.0886550597243 3.220197864894233 0 0 0
150 2 31.71679309602098 21.556336203468216 0.5554522960151161 0 0 0
153 2 31.703785314579065 24.088645138220166 3.2328099673237114 0 0 0
369 2 29.15610926575828 19.011738253615235 5.895737623665911 0 0 0
400 2 26.61346429963658 21.55777534658104 5.895050295185523 0 0 0
401 2 29.151188478266835 24.100781086168876 5.900106078217072 0 0 0
404 2 31.69582624326754 21.555923267354302 5.902318078314443 0 0 0
120 2 34.260397431846705 19.02505246349153 0.5600609410144947 0 0 0
124 2 39.320668362759065 19.024589281438928 0.5674248302815857 0 0 0
126 2 36.81415351424751 19.031251694128567 3.2341837694517515 0 0 0
151 2 34.26141335328399 24.08561004701249 0.5704348453591678 0 0 0
152 2 34.24318745510684 21.548467908455706 3.240713020241714 0 0 0
154 2 36.79483644696527 21.57133678701717 0.5774457455374069 0 0 0
155 2 39.32381595324385 24.086307134666402 0.5705730596992555 0 0 0
156 2 39.39529119062397 21.619712801958666 3.243468615855982 0 0 0
157 2 36.78013869668963 24.088359375925688 3.2575074365058194 0 0 0
373 2 34.24466171093566 19.01146197402885 5.897307193961983 0 0 0
377 2 39.329678497945736 19.006591954301097 5.895827461533247 0 0 0
405 2 34.24469331452235 24.092700245456598 5.908233710254979 0 0 0
408 2 36.792757750272564 21.549912219489 5.901948666223351 0 0 0
409 2 39.34091978016713 24.08670679349756 5.9144363804203115 0 0 0
158 2 1.2098410222593456 26.60094479887521 0.5566774616578879 0 0 0
159 2 3.741419075479055 29.14850312914103 0.5678741480456643 0 0 0
160 2 3.6786956803812276 26.549795721916663 3.236981478126269 0 0 0
161 2 1.2194259274889212 29.177911475465226 3.2332885681579837 0 0 0
162 2 6.284990339314351 26.61931222877806 0.5676879570823158 0 0 0
163 2 8.823178720736687 29.161247089964498 0.5607071816656829 0 0 0
164 2 8.83725451184029 26.62715541190911 3.232188154467525 0 0 0
165 2 6.260428797331743 29.136375191383646 3.2337692778974225 0 0 0
190 2 1.2116048700056687 31.69926293906185 0.5587777542222074 0 0 0
192 2 3.754552734769377 31.72069932104301 3.235915376898936 0 0 0
194 2 6.281656762230481 31.691903811690874 0.5640789221330074 0 0 0
196 2 8.81223201703858 31.70072965749481 3.232541510675467 0 0 0
412 2 1.2239840093174883 26.610564834674257 5.91409335999132 0 0 0
413 2 3.738488715746101 29.166997228574548 5.90011402244978 0 0 0
416 2 6.2855497068428985 26.621027687581805 5.900507687799905 0 0 0
417 2 8.8289163831576 29.163908116551717 5.897497740815662 0 0 0
443 2 1.2248538814157197 31.765510579770094 5.890395407434622 0 0 0
447 2 6.285254879232731 31.698099242256127 5.897891720472148 0 0 0
166 2 11.371547343266004 26.630585276168915 0.5538832122143869 0 0 0
167 2 13.913995373228776 29.17094835185914 0.5513771707284002 0 0 0
168 2 13.912169116012976 26.631889876496675 3.223237403490561 0 0 0
169 2 11.370314714080102 29.175065880839227 3.2283974694816613 0 0 0
170 2 16.452482262502496 26.628132317121025 0.5522918632169642 0 0 0
173 2 16.457096953011117 29.17298460114041 3.2221787085388454 0 0 0
198 2 11.364941331045111 31.700289331364573 0.5533873052119137 0 0 0
200 2 13.91411057563303 31.7127202439749 3.2233133609323046 0 0 0
202 2 16.46152362154198 31.710290409440045 0.5468399729149076 0 0 0
420 2 11.377182172938605 26.62979742687396 5.896171338521496 0 0 0
421 2 13.908529694503851 29.186250018544005 5.892395835980334 0 0 0
424 2 16.447725927319638 26.629625711255905 5.886368462706691 0 0 0
451 2 11.34769608175424 31.736582706844644 5.89371257982075 0 0 0
455 2 16.471549581300795 31.713168391588038 5.893419424222725 0 0 0
171 2 18.996742420266866 29.16726894800286 0.5486035258284757 0 0 0
172 2 18.99351788365036 26.6244097190391 3.22014832954712 0 0 0
174 2 21.53429339253936 26.624585962143126 0.5476668741417817 0 0 0
175 2 24.080536855353667 29.166111164102688 0.5469826810904983 0 0 0
176 2 24.075999388424144 26.62497539515581 3.2027919171499226 0 0 0
177 2 21.535770956821843 29.16614665705554 3.2147482329741726 0 0 0
204 2 19.004079356501986 31.710382276314668 3.2159791633788934 0 0 0
206 2 21.542270909309458 31.706159455024427 0.5455204560704348 0 0 0
208 2 24.077916792420925 31.704987798098234 3.2204783495196136 0 0 0
425 2 19.00512748444428 29.15945168440006 5.8894124360316855 0 0 0
428 2 21.546177303878554 26.619276602698797 5.885169428151857 0 0 0
429 2 24.067514701250236 29.152816733198765 5.885313068258107 0 0 0
459 2 21.537322657034295 31.710403215103174 5.89226420826036 0 0 0
178 2 26.62336413980866 26.624537071662772 0.5501851681964794 0 0 0
179 2 29.172700678372387 29.15601800672733 0.5513921210002186 0 0 0
180 2 29.16359675330283 26.628274923590677 3.224621625912659 0 0 0
181 2 26.620809251324996 29.166068597353394 3.217454167380445 0 0 0
182 2 31.716851931896425 26.615401541074093 0.5530438617775404 0 0 0
185 2 31.708701694940736 29.16425952606024 3.2257403733273575 0 0 0
210 2 26.629822464123894 31.69893194956084 0.5508969581921364 0 0 0
212 2 29.16699828601043 31.701065155530653 3.225135337098157 0 0 0
214 2 31.7157381231412 31.688995404977025 0.5540817720721414 0 0 0
431 2 26.603197766356022 26.63455424944984 5.88714740545637 0 0 0
432 2 29.160049669369062 29.170735995152125 5.893882309238954 0 0 0
435 2 31.704147332120428 26.630792663761316 5.896959001399575 0 0 0
463 2 26.603659394903023 31.696908796416334 5.895264816166324 0 0 0
467 2 31.729140187370756 31.722888241852008 5.883942607843871 0 0 0
183 2 34.261037448245865 29.144342668507115 0.5551826023264131 0 0 0
184 2 34.245422770520754 26.625149543719253 3.2358663985289686 0 0 0
186 2 36.79628260964796 26.59803509565948 0.5719287239349066 0 0 0
187 2 39.32160846872945 29.143977773320803 0.5608600179894095 0 0 0
188 2 39.40266081612452 26.552757114644947 3.2420871856240865 0 0 0
189 2 36.817586252889924 29.134635547528266 3.2253492605166953 0 0 0
216 2 34.25998066089534 31.698144202803302 3.22136200142184 0 0 0
218 2 36.78462951610443 31.70037919225492 0.5565135879260975 0 0 0
220 2 39.32122919195918 31.718125905767824 3.2248330668753042 0 0 0
436 2 34.25499280038225 29.16110903048193 5.888207166315317 0 0 0
439 2 36.802770824679484 26.629108974994367 5.90165101857658 0 0 0
440 2 39.34682222247232 29.17010863024208 5.893017549247865 0 0 0
471 2 36.79225468007673 31.694210711592255 5.8752093443416795 0 0 0
191 2 3.7470564069165153 34.238959637476206 0.5522344135501118 0 0 0
193 2 1.215602458280275 34.26322300386978 3.230189902233368 0 0 0
195 2 8.824955123957226 34.23165283416706 0.5476774932648278 0 0 0
197 2 6.29048816085662 34.25864441716374 3.2192859904029723 0 0 0
222 2 1.2147156423511039 36.78108709558203 0.5479484614639785 0 0 0
223 2 3.7506015797620327 39.315274275327624 0.5447904826665693 0 0 0
224 2 3.768056752832268 36.783860041270344 3.2157766331851505 0 0 0
225 2 1.2138391918069413 39.30766662081661 3.235362205550909 0 0 0
226 2 6.28822614761345 36.77614959295407 0.5304374167541499 0 0 0
227 2 8.82893111187699 39.31460337866449 0.544977773092189 0 0 0
228 2 8.816468016249724 36.77771936123021 3.2140721313893406 0 0 0
229 2 6.294051810528554 39.29951109022851 3.218322422231605 0 0 0
444 2 3.8327005537032472 34.33255756097768 5.898599726879398 0 0 0
448 2 8.75482447109688 34.31558443246531 5.892922115363158 0 0 0
475 2 1.2078799977651067 36.794913000653885 5.892042002350852 0 0 0
476 2 3.8380854328045593 39.23395709677092 5.904771037581412 0 0 0
479 2 8.757289072284157 39.240242138806245 5.8929911001782225 0 0 0
199 2 13.909374456716627 34.238777741482004 0.5474303958130428 0 0 0
201 2 11.36003459448718 34.241604240276786 3.2251039272699664 0 0 0
205 2 16.462530064705007 34.24536017597081 3.208231350291622 0 0 0
230 2 11.366481672881408 36.773382471526766 0.548339438614673 0 0 0
231 2 13.903022329934954 39.31945692347807 0.5488237115384407 0 0 0
232 2 13.914995137122352 36.77648568596974 3.214544034916459 0 0 0
233 2 11.363981147801978 39.30869094426769 3.2264723032381504 0 0 0
234 2 16.45120644780765 36.78263571168755 0.5401336279081044 0 0 0
237 2 16.450248885254805 39.324699725206024 3.2093326134113878 0 0 0
452 2 13.929854054100545 34.24626558323407 5.890127340425097 0 0 0
482 2 11.380572175985666 36.77538846336842 5.884679403607475 0 0 0
483 2 13.927342113352367 39.31339405632745 5.888031741949036 0 0 0
486 2 16.47582732093002 36.78060197206954 5.877501509737797 0 0 0
203 2 19.013239825330917 34.25674613521352 0.5400284853403926 0 0 0
207 2 24.089555226163807 34.24094336180774 0.5483646234381258 0 0 0
209 2 21.547920519607494 34.252956966393214 3.2077560301675434 0 0 0
235 2 18.997004629797537 39.32446651768834 0.5408889179816767 0 0 0
236 2 19.003372154357503 36.79095012990311 3.1903370813785816 0 0 0
238 2 21.57820076602279 36.814365421354005 0.5423505942731348 0 0 0
239 2 24.16994896024865 39.39925802161616 0.551970501503179 0 0 0
240 2 24.093612737007547 36.7964897167448 3.2147978059607594 0 0 0
241 2 21.55041800217022 39.328987104001904 3.207977384475765 0 0 0
456 2 19.00280303567113 34.25912582787569 5.87780618156772 0 0 0
460 2 24.073344164607455 34.25942950431999 5.888579449398775 0 0 0
487 2 18.996096831381077 39.30718688726457 5.878948495579975 0 0 0
489 2 21.52366214094241 36.787386414242704 5.8764794362089 0 0 0
490 2 24.06844154154206 39.31443679639796 5.905972019669652 0 0 0
211 2 29.173306945701544 34.23330336085935 0.5552587554644451 0 0 0
213 2 26.623443214141208 34.24125389564849 3.2249597313085396 0 0 0
217 2 31.712768626382886 34.245157959457494 3.222063273834277 0 0 0
242 2 26.63273019424686 36.77389119046199 0.5542630929202164 0 0 0
243 2 29.09401965246297 39.394088783510234 0.5635084994120693 0 0 0
244 2 29.162769805468695 36.79250832658584 3.2219563491566587 0 0 0
245 2 26.6291150340935 39.342310198430084 3.2372090586159175 0 0 0
246 2 31.679368769774705 36.8086764073076 0.5553518425571417 0 0 0
249 2 31.714212236352196 39.32460622400687 3.237591289906552 0 0 0
464 2 29.156236625762745 34.234416881166844 5.887692776511673 0 0 0
493 2 26.633379852829975 36.79494611422541 5.8916189842397 0 0 0
494 2 29.190863158008472 39.343906390518875 5.907479247656297 0 0 0
497 2 31.69755921724158 36.773414540138056 5.891874830478891 0 0 0
215 2 34.23416756975805 34.248445404171555 0.544290131785675 0 0 0
219 2 39.321734397564725 34.244593816725114 0.5456315756980228 0 0 0
221 2 36.77849453880562 34.26022735326272 3.2064337259097773 0 0 0
247 2 34.24813563582782 39.31860858295717 0.5457699347254179 0 0 0
248 2 34.25437377015153 36.784596382729106 3.2090511940571216 0 0 0
250 2 36.78374774584049 36.782820443251225 0.5258530360360001 0 0 0
251 2 39.32370227226297 39.320995399263495 0.5453597422779684 0 0 0
252 2 39.297035671357754 36.790624373342595 3.2150951213065353 0 0 0
253 2 36.77843050316903 39.315873694768364 3.2187525259411363 0 0 0
468 2 34.31816517427856 34.31312682013256 5.880669206003646 0 0 0
472 2 39.24657114101249 34.320664905599195 5.868952239955169 0 0 0
498 2 34.32819261026817 39.22426508228326 5.9008151033771234 0 0 0
501 2 39.21597073017778 39.26934415632718 5.8982768648607555 0 0 0
256 2 3.755675692977692 1.1898715836210867 8.572214048647567 0 0 0
257 2 1.2237009814820028 3.741518698182489 8.570552463240624 0 0 0
260 2 8.831620219838824 1.206341388192664 8.560587259591374 0 0 0
261 2 6.293876049955596 3.745359163989213 8.580511919884772 0 0 0
287 2 3.762734999996283 6.29303681208038 8.584371753296718 0 0 0
288 2 1.2123507979590253 8.826859618984908 8.573021746669298 0 0 0
291 2 8.841908683959575 6.283478407229431 8.582440855351402 0 0 0
292 2 6.313463543303953 8.84147931579133 8.598647255102904 0 0 0
504 2 1.2083161350298548 1.2067040507250468 11.240661476998847 0 0 0
505 2 3.761103866146577 3.742195540504511 11.247812497733943 0 0 0
506 2 3.7429571700094626 1.2034045685252888 13.911629658845492 0 0 0
507 2 1.2117521511313145 3.752411624043894 13.913528782045107 0 0 0
508 2 6.294931663530393 1.1909731855036298 11.249256855740745 0 0 0
509 2 8.847298195227934 3.7318027770878257 11.246568266484793 0 0 0
510 2 8.92455286512522 1.1403523574552812 13.908782500997336 0 0 0
511 2 6.329069666513394 3.7199043532513287 13.911139150750033 0 0 0
536 2 1.2169429678430004 6.287702357908798 11.242732851986194 0 0 0
537 2 3.7616477218477478 8.831367593299445 11.24873951173182 0 0 0
538 2 3.7707265556336176 6.28171200679776 13.91127714921988 0 0 0
539 2 1.2124557893450558 8.826360737187636 13.908692422863362 0 0 0
540 2 6.3099497207065145 6.28533568535996 11.252617396045675 0 0 0
541 2 8.851729150002402 8.842179038773287 11.246810115272545 0 0 0
542 2 8.8524399737074 6.296600303874984 13.911677598827316 0 0 0
543 2 6.310580329126901 8.83868098168328 13.909787911951568 0 0 0
264 2 13.945184956791458 1.1894645265389754 8.55452197645387 0 0 0
265 2 11.389387077660336 3.741205708575178 8.566092582031239 0 0 0
269 2 16.458537934401328 3.7626989605495034 8.569194789804868 0 0 0
295 2 13.923942697706897 6.299062037211559 8.570800898149129 0 0 0
296 2 11.375717280258288 8.832590405984506 8.56878377917214 0 0 0
300 2 16.47645521135641 8.832816022034528 8.563250461673254 0 0 0
512 2 11.399456275840524 1.2044115354862162 11.224831190185967 0 0 0
513 2 13.945359292861367 3.7650579861688516 11.237593369415677 0 0 0
514 2 13.853799545023756 1.1357192551179276 13.90469206444675 0 0 0
515 2 11.396115991492533 3.7589573496303648 13.905946253068178 0 0 0
516 2 16.454160820782498 1.1945205390316604 11.234857953900399 0 0 0
519 2 16.440116898708535 3.724401214419607 13.906168923151164 0 0 0
544 2 11.383000947094231 6.289659181125701 11.240508635344334 0 0 0
545 2 13.916451531198685 8.83891086783139 11.239035893775245 0 0 0
546 2 13.938482630110821 6.301721282052001 13.902867450531554 0 0 0
547 2 11.394391391723433 8.849536674073825 13.913255934551968 0 0 0
548 2 16.527102628294873 6.362115586555917 11.242226827490223 0 0 0
550 2 16.481366636386138 8.84891443070753 13.91289392242135 0 0 0
268 2 18.992674102572206 1.2224529367612198 8.564508587599564 0 0 0
272 2 24.03999246686397 1.1920645806977372 8.576695894639494 0 0 0
273 2 21.525538908638314 3.766572202655916 8.577379923295805 0 0 0
299 2 18.992931242017132 6.306386664159822 8.561334396619936 0 0 0
303 2 24.060512687978065 6.307894055868759 8.57886565983387 0 0 0
304 2 21.5036621634269 8.846162373272081 8.564805718146166 0 0 0
517 2 18.989056610962077 3.7425893675983266 11.244690144362206 0 0 0
518 2 19.000916371309543 1.2022614786496533 13.913127884338211 0 0 0
520 2 21.526977291850617 1.1995741079671025 11.234665606737035 0 0 0
521 2 24.041823222159632 3.7760358097005406 11.239309897549374 0 0 0
522 2 24.074528463951008 1.2037850787111497 13.900285420152056 0 0 0
523 2 21.53001617056529 3.755535374722183 13.904284798768412 0 0 0
549 2 18.985016157269094 6.297110666841042 13.920028813883784 0 0 0
551 2 21.45292158199315 6.371849032558759 11.243511853023163 0 0 0
552 2 24.076146289662624 8.841113905583558 11.239779957388293 0 0 0
553 2 24.060566408851447 6.306059072342196 13.901096406656803 0 0 0
554 2 21.503096862070482 8.848471646834799 13.914086866666088 0 0 0
276 2 29.178169871595802 1.2136188936932704 8.57147609620117 0 0 0
277 2 26.600910332118264 3.7467295249031505 8.581266019499333 0 0 0
280 2 31.72965620368299 3.739253190771518 8.572043860706872 0 0 0
307 2 29.17099482741741 6.274410422352612 8.566755452932341 0 0 0
308 2 26.628104015429688 8.826182048866285 8.565970103774971 0 0 0
312 2 31.70689333928527 8.820652321544994 8.564050253970278 0 0 0