LAMMPS data file via write_data, version 23 Jun 2022, timestep = 0

11800 atoms
2 atom types

0 40.6401 xlo xhi
0 40.6401 ylo yhi
0 184.07236603850316 zlo zhi

Masses

1 196.966569
2 39.95

Atoms # atomic

1 1 0 0 1 0 0 0
2 1 2.032005 2.032005 1 0 0 0
3 1 2.032005 0 3.032005 0 0 0
4 1 0 2.032005 3.032005 0 0 0
5 1 4.06401 0 1 0 0 0
6 1 6.0960149999999995 2.032005 1 0 0 0
7 1 6.0960149999999995 0 3.032005 0 0 0
8 1 4.06401 2.032005 3.032005 0 0 0
9 1 8.12802 0 1 0 0 0
10 1 10.160025 2.032005 1 0 0 0
11 1 10.160025 0 3.032005 0 0 0
12 1 8.12802 2.032005 3.032005 0 0 0
13 1 12.192029999999999 0 1 0 0 0
14 1 14.224034999999999 2.032005 1 0 0 0
15 1 14.224034999999999 0 3.032005 0 0 0
16 1 12.192029999999999 2.032005 3.032005 0 0 0
17 1 16.25604 0 1 0 0 0
18 1 18.288044999999997 2.032005 1 0 0 0
19 1 18.288044999999997 0 3.032005 0 0 0
20 1 16.25604 2.032005 3.032005 0 0 0
21 1 20.32005 0 1 0 0 0
22 1 22.352055 2.032005 1 0 0 0
23 1 22.352055 0 3.032005 0 0 0
24 1 20.32005 2.032005 3.032005 0 0 0
25 1 24.384059999999998 0 1 0 0 0
26 1 26.416064999999996 2.032005 1 0 0 0
27 1 26.416064999999996 0 3.032005 0 0 0
28 1 24.384059999999998 2.032005 3.032005 0 0 0
29 1 28.448069999999998 0 1 0 0 0
30 1 30.480075 2.032005 1 0 0 0
31 1 30.480075 0 3.032005 0 0 0
32 1 28.448069999999998 2.032005 3.032005 0 0 0
33 1 32.51208 0 1 0 0 0
34 1 34.544084999999995 2.032005 1 0 0 0
35 1 34.544084999999995 0 3.032005 0 0 0
36 1 32.51208 2.032005 3.032005 0 0 0
37 1 36.57608999999999 0 1 0 0 0
38 1 38.608095 2.032005 1 0 0 0
39 1 38.608095 0 3.032005 0 0 0
40 1 36.57608999999999 2.032005 3.032005 0 0 0
41 1 0 4.06401 1 0 0 0
42 1 2.032005 6.0960149999999995 1 0 0 0
43 1 2.032005 4.06401 3.032005 0 0 0
44 1 0 6.0960149999999995 3.032005 0 0 0
45 1 4.06401 4.06401 1 0 0 0
46 1 6.0960149999999995 6.0960149999999995 1 0 0 0
47 1 6.0960149999999995 4.06401 3.032005 0 0 0
48 1 4.06401 6.0960149999999995 3.032005 0 0 0
49 1 8.12802 4.06401 1 0 0 0
50 1 10.160025 6.0960149999999995 1 0 0 0
51 1 10.160025 4.06401 3.032005 0 0 0
52 1 8.12802 6.0960149999999995 3.032005 0 0 0
53 1 12.192029999999999 4.06401 1 0 0 0
54 1 14.224034999999999 6.0960149999999995 1 0 0 0
55 1 14.224034999999999 4.06401 3.032005 0 0 0
56 1 12.192029999999999 6.0960149999999995 3.032005 0 0 0
57 1 16.25604 4.06401 1 0 0 0
58 1 18.288044999999997 6.0960149999999995 1 0 0 0
59 1 18.288044999999997 4.06401 3.032005 0 0 0
60 1 16.25604 6.0960149999999995 3.032005 0 0 0
61 1 20.32005 4.06401 1 0 0 0
62 1 22.352055 6.0960149999999995 1 0 0 0
63 1 22.352055 4.06401 3.032005 0 0 0
64 1 20.32005 6.0960149999999995 3.032005 0 0 0
65 1 24.384059999999998 4.06401 1 0 0 0
66 1 26.416064999999996 6.0960149999999995 1 0 0 0
67 1 26.416064999999996 4.06401 3.032005 0 0 0
68 1 24.384059999999998 6.0960149999999995 3.032005 0 0 0
69 1 28.448069999999998 4.06401 1 0 0 0
70 1 30.480075 6.0960149999999995 1 0 0 0
71 1 30.480075 4.06401 3.032005 0 0 0
72 1 28.448069999999998 6.0960149999999995 3.032005 0 0 0
73 1 32.51208 4.06401 1 0 0 0
74 1 34.544084999999995 6.0960149999999995 1 0 0 0
75 1 34.544084999999995 4.06401 3.032005 0 0 0
76 1 32.51208 6.0960149999999995 3.032005 0 0 0
77 1 36.57608999999999 4.06401 1 0 0 0
78 1 38.608095 6.0960149999999995 1 0 0 0
79 1 38.608095 4.06401 3.032005 0 0 0
80 1 36.57608999999999 6.0960149999999995 3.032005 0 0 0
81 1 0 8.12802 1 0 0 0
82 1 2.032005 10.160025 1 0 0 0
83 1 2.032005 8.12802 3.032005 0 0 0
84 1 0 10.160025 3.032005 0 0 0
85 1 4.06401 8.12802 1 0 0 0
86 1 6.0960149999999995 10.160025 1 0 0 0
87 1 6.0960149999999995 8.12802 3.032005 0 0 0
88 1 4.06401 10.160025 3.032005 0 0 0
89 1 8.12802 8.12802 1 0 0 0
90 1 10.160025 10.160025 1 0 0 0
91 1 10.160025 8.12802 3.032005 0 0 0
92 1 8.12802 10.160025 3.032005 0 0 0
93 1 12.192029999999999 8.12802 1 0 0 0
94 1 14.224034999999999 10.160025 1 0 0 0
95 1 14.224034999999999 8.12802 3.032005 0 0 0
96 1 12.192029999999999 10.160025 3.032005 0 0 0
97 1 16.25604 8.12802 1 0 0 0
98 1 18.288044999999997 10.160025 1 0 0 0
99 1 18.288044999999997 8.12802 3.032005 0 0 0
100 1 16.25604 10.160025 3.032005 0 0 0
101 1 20.32005 8.12802 1 0 0 0
102 1 22.352055 10.160025 1 0 0 0
103 1 22.352055 8.12802 3.032005 0 0 0
104 1 20.32005 10.160025 3.032005 0 0 0
105 1 24.384059999999998 8.12802 1 0 0 0
106 1 26.416064999999996 10.160025 1 0 0 0
107 1 26.416064999999996 8.12802 3.032005 0 0 0
108 1 24.384059999999998 10.160025 3.032005 0 0 0
109 1 28.448069999999998 8.12802 1 0 0 0
110 1 30.480075 10.160025 1 0 0 0
111 1 30.480075 8.12802 3.032005 0 0 0
112 1 28.448069999999998 10.160025 3.032005 0 0 0
113 1 32.51208 8.12802 1 0 0 0
114 1 34.544084999999995 10.160025 1 0 0 0
115 1 34.544084999999995 8.12802 3.032005 0 0 0
116 1 32.51208 10.160025 3.032005 0 0 0
117 1 36.57608999999999 8.12802 1 0 0 0
118 1 38.608095 10.160025 1 0 0 0
119 1 38.608095 8.12802 3.032005 0 0 0
120 1 36.57608999999999 10.160025 3.032005 0 0 0
121 1 0 12.192029999999999 1 0 0 0
122 1 2.032005 14.224034999999999 1 0 0 0
123 1 2.032005 12.192029999999999 3.032005 0 0 0
124 1 0 14.224034999999999 3.032005 0 0 0
125 1 4.06401 12.192029999999999 1 0 0 0
126 1 6.0960149999999995 14.224034999999999 1 0 0 0
127 1 6.0960149999999995 12.192029999999999 3.032005 0 0 0
128 1 4.06401 14.224034999999999 3.032005 0 0 0
129 1 8.12802 12.192029999999999 1 0 0 0
130 1 10.160025 14.224034999999999 1 0 0 0
131 1 10.160025 12.192029999999999 3.032005 0 0 0
132 1 8.12802 14.224034999999999 3.032005 0 0 0
133 1 12.192029999999999 12.192029999999999 1 0 0 0
134 1 14.224034999999999 14.224034999999999 1 0 0 0
135 1 14.224034999999999 12.192029999999999 3.032005 0 0 0
136 1 12.192029999999999 14.224034999999999 3.032005 0 0 0
137 1 16.25604 12.192029999999999 1 0 0 0
138 1 18.288044999999997 14.224034999999999 1 0 0 0
139 1 18.288044999999997 12.192029999999999 3.032005 0 0 0
140 1 16.25604 14.224034999999999 3.032005 0 0 0
141 1 20.32005 12.192029999999999 1 0 0 0
142 1 22.352055 14.224034999999999 1 0 0 0
143 1 22.352055 12.192029999999999 3.032005 0 0 0
144 1 20.32005 14.224034999999999 3.032005 0 0 0
145 1 24.384059999999998 12.192029999999999 1 0 0 0
146 1 26.416064999999996 14.224034999999999 1 0 0 0
147 1 26.416064999999996 12.192029999999999 3.032005 0 0 0
148 1 24.384059999999998 14.224034999999999 3.032005 0 0 0
149 1 28.448069999999998 12.192029999999999 1 0 0 0
150 1 30.480075 14.224034999999999 1 0 0 0
151 1 30.480075 12.192029999999999 3.032005 0 0 0
152 1 28.448069999999998 14.224034999999999 3.032005 0 0 0
153 1 32.51208 12.192029999999999 1 0 0 0
154 1 34.544084999999995 14.224034999999999 1 0 0 0
155 1 34.544084999999995 12.192029999999999 3.032005 0 0 0
156 1 32.51208 14.224034999999999 3.032005 0 0 0
157 1 36.57608999999999 12.192029999999999 1 0 0 0
158 1 38.608095 14.224034999999999 1 0 0 0
159 1 38.608095 12.192029999999999 3.032005 0 0 0
160 1 36.57608999999999 14.224034999999999 3.032005 0 0 0
161 1 0 16.25604 1 0 0 0
162 1 2.032005 18.288044999999997 1 0 0 0
163 1 2.032005 16.25604 3.032005 0 0 0
164 1 0 18.288044999999997 3.032005 0 0 0
165 1 4.06401 16.25604 1 0 0 0
166 1 6.0960149999999995 18.288044999999997 1 0 0 0
167 1 6.0960149999999995 16.25604 3.032005 0 0 0
168 1 4.06401 18.288044999999997 3.032005 0 0 0
169 1 8.12802 16.25604 1 0 0 0
170 1 10.160025 18.288044999999997 1 0 0 0
171 1 10.160025 16.25604 3.032005 0 0 0
172 1 8.12802 18.288044999999997 3.032005 0 0 0
173 1 12.192029999999999 16.25604 1 0 0 0
174 1 14.224034999999999 18.288044999999997 1 0 0 0
175 1 14.224034999999999 16.25604 3.032005 0 0 0
176 1 12.192029999999999 18.288044999999997 3.032005 0 0 0
177 1 16.25604 16.25604 1 0 0 0
178 1 18.288044999999997 18.288044999999997 1 0 0 0
179 1 18.288044999999997 16.25604 3.032005 0 0 0
180 1 16.25604 18.288044999999997 3.032005 0 0 0
181 1 20.32005 16.25604 1 0 0 0
182 1 22.352055 18.288044999999997 1 0 0 0
183 1 22.352055 16.25604 3.032005 0 0 0
184 1 20.32005 18.288044999999997 3.032005 0 0 0
185 1 24.384059999999998 16.25604 1 0 0 0
186 1 26.416064999999996 18.288044999999997 1 0 0 0
187 1 26.416064999999996 16.25604 3.032005 0 0 0
188 1 24.384059999999998 18.288044999999997 3.032005 0 0 0
189 1 28.448069999999998 16.25604 1 0 0 0
190 1 30.480075 18.288044999999997 1 0 0 0
191 1 30.480075 16.25604 3.032005 0 0 0
192 1 28.448069999999998 18.288044999999997 3.032005 0 0 0
193 1 32.51208 16.25604 1 0 0 0
194 1 34.544084999999995 18.288044999999997 1 0 0 0
195 1 34.544084999999995 16.25604 3.032005 0 0 0
196 1 32.51208 18.288044999999997 3.032005 0 0 0
197 1 36.57608999999999 16.25604 1 0 0 0
198 1 38.608095 18.288044999999997 1 0 0 0
199 1 38.608095 16.25604 3.032005 0 0 0
200 1 36.57608999999999 18.288044999999997 3.032005 0 0 0
201 1 0 20.32005 1 0 0 0
202 1 2.032005 22.352055 1 0 0 0
203 1 2.032005 20.32005 3.032005 0 0 0
204 1 0 22.352055 3.032005 0 0 0
205 1 4.06401 20.32005 1 0 0 0
206 1 6.0960149999999995 22.352055 1 0 0 0
207 1 6.0960149999999995 20.32005 3.032005 0 0 0
208 1 4.06401 22.352055 3.032005 0 0 0
209 1 8.12802 20.32005 1 0 0 0
210 1 10.160025 22.352055 1 0 0 0
211 1 10.160025 20.32005 3.032005 0 0 0
212 1 8.12802 22.352055 3.032005 0 0 0
213 1 12.192029999999999 20.32005 1 0 0 0
214 1 14.224034999999999 22.352055 1 0 0 0
215 1 14.224034999999999 20.32005 3.032005 0 0 0
216 1 12.192029999999999 22.352055 3.032005 0 0 0
217 1 16.25604 20.32005 1 0 0 0
218 1 18.288044999999997 22.352055 1 0 0 0
219 1 18.288044999999997 20.32005 3.032005 0 0 0
220 1 16.25604 22.352055 3.032005 0 0 0
221 1 20.32005 20.32005 1 0 0 0
222 1 22.352055 22.352055 1 0 0 0
223 1 22.352055 20.32005 3.032005 0 0 0
224 1 20.32005 22.352055 3.032005 0 0 0
225 1 24.384059999999998 20.32005 1 0 0 0
226 1 26.416064999999996 22.352055 1 0 0 0
227 1 26.416064999999996 20.32005 3.032005 0 0 0
228 1 24.384059999999998 22.352055 3.032005 0 0 0
229 1 28.448069999999998 20.32005 1 0 0 0
230 1 30.480075 22.352055 1 0 0 0
231 1 30.480075 20.32005 3.032005 0 0 0
232 1 28.448069999999998 22.352055 3.032005 0 0 0
233 1 32.51208 20.32005 1 0 0 0
234 1 34.544084999999995 22.352055 1 0 0 0
235 1 34.544084999999995 20.32005 3.032005 0 0 0
236 1 32.51208 22.352055 3.032005 0 0 0
237 1 36.57608999999999 20.32005 1 0 0 0
238 1 38.608095 22.352055 1 0 0 0
239 1 38.608095 20.32005 3.032005 0 0 0
240 1 36.57608999999999 22.352055 3.032005 0 0 0
241 1 0 24.384059999999998 1 0 0 0
242 1 2.032005 26.416064999999996 1 0 0 0
243 1 2.032005 24.384059999999998 3.032005 0 0 0
244 1 0 26.416064999999996 3.032005 0 0 0
245 1 4.06401 24.384059999999998 1 0 0 0
246 1 6.0960149999999995 26.416064999999996 1 0 0 0
247 1 6.0960149999999995 24.384059999999998 3.032005 0 0 0
248 1 4.06401 26.416064999999996 3.032005 0 0 0
249 1 8.12802 24.384059999999998 1 0 0 0
250 1 10.160025 26.416064999999996 1 0 0 0
251 1 10.160025 24.384059999999998 3.032005 0 0 0
252 1 8.12802 26.416064999999996 3.032005 0 0 0
253 1 12.192029999999999 24.384059999999998 1 0 0 0
254 1 14.224034999999999 26.416064999999996 1 0 0 0
255 1 14.224034999999999 24.384059999999998 3.032005 0 0 0
256 1 12.192029999999999 26.416064999999996 3.032005 0 0 0
257 1 16.25604 24.384059999999998 1 0 0 0
258 1 18.288044999999997 26.416064999999996 1 0 0 0
259 1 18.288044999999997 24.384059999999998 3.032005 0 0 0
260 1 16.25604 26.416064999999996 3.032005 0 0 0
261 1 20.32005 24.384059999999998 1 0 0 0
262 1 22.352055 26.416064999999996 1 0 0 0
263 1 22.352055 24.384059999999998 3.032005 0 0 0
264 1 20.32005 26.416064999999996 3.032005 0 0 0
265 1 24.384059999999998 24.384059999999998 1 0 0 0
266 1 26.416064999999996 26.416064999999996 1 0 0 0
267 1 26.416064999999996 24.384059999999998 3.032005 0 0 0
268 1 24.384059999999998 26.416064999999996 3.032005 0 0 0
269 1 28.448069999999998 24.384059999999998 1 0 0 0
270 1 30.480075 26.416064999999996 1 0 0 0
271 1 30.480075 24.384059999999998 3.032005 0 0 0
272 1 28.448069999999998 26.416064999999996 3.032005 0 0 0
273 1 32.51208 24.384059999999998 1 0 0 0
274 1 34.544084999999995 26.416064999999996 1 0 0 0
275 1 34.544084999999995 24.384059999999998 3.032005 0 0 0
276 1 32.51208 26.416064999999996 3.032005 0 0 0
277 1 36.57608999999999 24.384059999999998 1 0 0 0
278 1 38.608095 26.416064999999996 1 0 0 0
279 1 38.608095 24.384059999999998 3.032005 0 0 0
280 1 36.57608999999999 26.416064999999996 3.032005 0 0 0
281 1 0 28.448069999999998 1 0 0 0
282 1 2.032005 30.480075 1 0 0 0
283 1 2.032005 28.448069999999998 3.032005 0 0 0
284 1 0 30.480075 3.032005 0 0 0
285 1 4.06401 28.448069999999998 1 0 0 0
286 1 6.0960149999999995 30.480075 1 0 0 0
287 1 6.0960149999999995 28.448069999999998 3.032005 0 0 0
288 1 4.06401 30.480075 3.032005 0 0 0
289 1 8.12802 28.448069999999998 1 0 0 0
290 1 10.160025 30.480075 1 0 0 0
291 1 10.160025 28.448069999999998 3.032005 0 0 0
292 1 8.12802 30.480075 3.032005 0 0 0
293 1 12.192029999999999 28.448069999999998 1 0 0 0
294 1 14.224034999999999 30.480075 1 0 0 0
295 1 14.224034999999999 28.448069999999998 3.032005 0 0 0
296 1 12.192029999999999 30.480075 3.032005 0 0 0
297 1 16.25604 28.448069999999998 1 0 0 0
298 1 18.288044999999997 30.480075 1 0 0 0
299 1 18.288044999999997 28.448069999999998 3.032005 0 0 0
300 1 16.25604 30.480075 3.032005 0 0 0
301 1 20.32005 28.448069999999998 1 0 0 0
302 1 22.352055 30.480075 1 0 0 0
303 1 22.352055 28.448069999999998 3.032005 0 0 0
304 1 20.32005 30.480075 3.032005 0 0 0
305 1 24.384059999999998 28.448069999999998 1 0 0 0
306 1 26.416064999999996 30.480075 1 0 0 0
307 1 26.416064999999996 28.448069999999998 3.032005 0 0 0
308 1 24.384059999999998 30.480075 3.032005 0 0 0
309 1 28.448069999999998 28.448069999999998 1 0 0 0
310 1 30.480075 30.480075 1 0 0 0
311 1 30.480075 28.448069999999998 3.032005 0 0 0
312 1 28.448069999999998 30.480075 3.032005 0 0 0
313 1 32.51208 28.448069999999998 1 0 0 0
314 1 34.544084999999995 30.480075 1 0 0 0
315 1 34.544084999999995 28.448069999999998 3.032005 0 0 0
316 1 32.51208 30.480075 3.032005 0 0 0
317 1 36.57608999999999 28.448069999999998 1 0 0 0
318 1 38.608095 30.480075 1 0 0 0
319 1 38.608095 28.448069999999998 3.032005 0 0 0
320 1 36.57608999999999 30.480075 3.032005 0 0 0
321 1 0 32.51208 1 0 0 0
322 1 2.032005 34.544084999999995 1 0 0 0
323 1 2.032005 32.51208 3.032005 0 0 0
324 1 0 34.544084999999995 3.032005 0 0 0
325 1 4.06401 32.51208 1 0 0 0
326 1 6.0960149999999995 34.544084999999995 1 0 0 0
327 1 6.0960149999999995 32.51208 3.032005 0 0 0
328 1 4.06401 34.544084999999995 3.032005 0 0 0
329 1 8.12802 32.51208 1 0 0 0
330 1 10.160025 34.544084999999995 1 0 0 0
331 1 10.160025 32.51208 3.032005 0 0 0
332 1 8.12802 34.544084999999995 3.032005 0 0 0
333 1 12.192029999999999 32.51208 1 0 0 0
334 1 14.224034999999999 34.544084999999995 1 0 0 0
335 1 14.224034999999999 32.51208 3.032005 0 0 0
336 1 12.192029999999999 34.544084999999995 3.032005 0 0 0
337 1 16.25604 32.51208 1 0 0 0
338 1 18.288044999999997 34.544084999999995 1 0 0 0
339 1 18.288044999999997 32.51208 3.032005 0 0 0
340 1 16.25604 34.544084999999995 3.032005 0 0 0
341 1 20.32005 32.51208 1 0 0 0
342 1 22.352055 34.544084999999995 1 0 0 0
343 1 22.352055 32.51208 3.032005 0 0 0
344 1 20.32005 34.544084999999995 3.032005 0 0 0
345 1 24.384059999999998 32.51208 1 0 0 0
346 1 26.416064999999996 34.544084999999995 1 0 0 0
347 1 26.416064999999996 32.51208 3.032005 0 0 0
348 1 24.384059999999998 34.544084999999995 3.032005 0 0 0
349 1 28.448069999999998 32.51208 1 0 0 0
350 1 30.480075 34.544084999999995 1 0 0 0
351 1 30.480075 32.51208 3.032005 0 0 0
352 1 28.448069999999998 34.544084999999995 3.032005 0 0 0
353 1 32.51208 32.51208 1 0 0 0
354 1 34.544084999999995 34.544084999999995 1 0 0 0
355 1 34.544084999999995 32.51208 3.032005 0 0 0
356 1 32.51208 34.544084999999995 3.032005 0 0 0
357 1 36.57608999999999 32.51208 1 0 0 0
358 1 38.608095 34.544084999999995 1 0 0 0
359 1 38.608095 32.51208 3.032005 0 0 0
360 1 36.57608999999999 34.544084999999995 3.032005 0 0 0
361 1 0 36.57608999999999 1 0 0 0
362 1 2.032005 38.608095 1 0 0 0
363 1 2.032005 36.57608999999999 3.032005 0 0 0
364 1 0 38.608095 3.032005 0 0 0
365 1 4.06401 36.57608999999999 1 0 0 0
366 1 6.0960149999999995 38.608095 1 0 0 0
367 1 6.0960149999999995 36.57608999999999 3.032005 0 0 0
368 1 4.06401 38.608095 3.032005 0 0 0
369 1 8.12802 36.57608999999999 1 0 0 0
370 1 10.160025 38.608095 1 0 0 0
371 1 10.160025 36.57608999999999 3.032005 0 0 0
372 1 8.12802 38.608095 3.032005 0 0 0
373 1 12.192029999999999 36.57608999999999 1 0 0 0
374 1 14.224034999999999 38.608095 1 0 0 0
375 1 14.224034999999999 36.57608999999999 3.032005 0 0 0
376 1 12.192029999999999 38.608095 3.032005 0 0 0
377 1 16.25604 36.57608999999999 1 0 0 0
378 1 18.288044999999997 38.608095 1 0 0 0
379 1 18.288044999999997 36.57608999999999 3.032005 0 0 0
380 1 16.25604 38.608095 3.032005 0 0 0
381 1 20.32005 36.57608999999999 1 0 0 0
382 1 22.352055 38.608095 1 0 0 0
383 1 22.352055 36.57608999999999 3.032005 0 0 0
384 1 20.32005 38.608095 3.032005 0 0 0
385 1 24.384059999999998 36.57608999999999 1 0 0 0
386 1 26.416064999999996 38.608095 1 0 0 0
387 1 26.416064999999996 36.57608999999999 3.032005 0 0 0
388 1 24.384059999999998 38.608095 3.032005 0 0 0
389 1 28.448069999999998 36.57608999999999 1 0 0 0
390 1 30.480075 38.608095 1 0 0 0
391 1 30.480075 36.57608999999999 3.032005 0 0 0
392 1 28.448069999999998 38.608095 3.032005 0 0 0
393 1 32.51208 36.57608999999999 1 0 0 0
394 1 34.544084999999995 38.608095 1 0 0 0
395 1 34.544084999999995 36.57608999999999 3.032005 0 0 0
396 1 32.51208 38.608095 3.032005 0 0 0
397 1 36.57608999999999 36.57608999999999 1 0 0 0
398 1 38.608095 38.608095 1 0 0 0
399 1 38.608095 36.57608999999999 3.032005 0 0 0
400 1 36.57608999999999 38.608095 3.032005 0 0 0
401 1 0 0 5.06401 0 0 0
402 1 2.032005 2.032005 5.06401 0 0 0
403 1 2.032005 0 7.0960149999999995 0 0 0
404 1 0 2.032005 7.0960149999999995 0 0 0
405 1 4.06401 0 5.06401 0 0 0
406 1 6.0960149999999995 2.032005 5.06401 0 0 0
407 1 6.0960149999999995 0 7.0960149999999995 0 0 0
408 1 4.06401 2.032005 7.0960149999999995 0 0 0
409 1 8.12802 0 5.06401 0 0 0
410 1 10.160025 2.032005 5.06401 0 0 0
411 1 10.160025 0 7.0960149999999995 0 0 0
412 1 8.12802 2.032005 7.0960149999999995 0 0 0
413 1 12.192029999999999 0 5.06401 0 0 0
414 1 14.224034999999999 2.032005 5.06401 0 0 0
415 1 14.224034999999999 0 7.0960149999999995 0 0 0
416 1 12.192029999999999 2.032005 7.0960149999999995 0 0 0
417 1 16.25604 0 5.06401 0 0 0
418 1 18.288044999999997 2.032005 5.06401 0 0 0
419 1 18.288044999999997 0 7.0960149999999995 0 0 0
420 1 16.25604 2.032005 7.0960149999999995 0 0 0
421 1 20.32005 0 5.06401 0 0 0
422 1 22.352055 2.032005 5.06401 0 0 0
423 1 22.352055 0 7.0960149999999995 0 0 0
424 1 20.32005 2.032005 7.0960149999999995 0 0 0
425 1 24.384059999999998 0 5.06401 0 0 0
426 1 26.416064999999996 2.032005 5.06401 0 0 0
427 1 26.416064999999996 0 7.0960149999999995 0 0 0
428 1 24.384059999999998 2.032005 7.0960149999999995 0 0 0
429 1 28.448069999999998 0 5.06401 0 0 0
430 1 30.480075 2.032005 5.06401 0 0 0
431 1 30.480075 0 7.0960149999999995 0 0 0
432 1 28.448069999999998 2.032005 7.0960149999999995 0 0 0
433 1 32.51208 0 5.06401 0 0 0
434 1 34.544084999999995 2.032005 5.06401 0 0 0
435 1 34.544084999999995 0 7.0960149999999995 0 0 0
436 1 32.51208 2.032005 7.0960149999999995 0 0 0
437 1 36.57608999999999 0 5.06401 0 0 0
438 1 38.608095 2.032005 5.06401 0 0 0
439 1 38.608095 0 7.0960149999999995 0 0 0
440 1 36.57608999999999 2.032005 7.0960149999999995 0 0 0
441 1 0 4.06401 5.06401 0 0 0
442 1 2.032005 6.0960149999999995 5.06401 0 0 0
443 1 2.032005 4.06401 7.0960149999999995 0 0 0
444 1 0 6.0960149999999995 7.0960149999999995 0 0 0
445 1 4.06401 4.06401 5.06401 0 0 0
446 1 6.0960149999999995 6.0960149999999995 5.06401 0 0 0
447 1 6.0960149999999995 4.06401 7.0960149999999995 0 0 0
448 1 4.06401 6.0960149999999995 7.0960149999999995 0 0 0
449 1 8.12802 4.06401 5.06401 0 0 0
450 1 10.160025 6.0960149999999995 5.06401 0 0 0
451 1 10.160025 4.06401 7.0960149999999995 0 0 0
452 1 8.12802 6.0960149999999995 7.0960149999999995 0 0 0
453 1 12.192029999999999 4.06401 5.06401 0 0 0
454 1 14.224034999999999 6.0960149999999995 5.06401 0 0 0
455 1 14.224034999999999 4.06401 7.0960149999999995 0 0 0
456 1 12.192029999999999 6.0960149999999995 7.0960149999999995 0 0 0
457 1 16.25604 4.06401 5.06401 0 0 0
458 1 18.288044999999997 6.0960149999999995 5.06401 0 0 0
459 1 18.288044999999997 4.06401 7.0960149999999995 0 0 0
460 1 16.25604 6.0960149999999995 7.0960149999999995 0 0 0
461 1 20.32005 4.06401 5.06401 0 0 0
462 1 22.352055 6.0960149999999995 5.06401 0 0 0
463 1 22.352055 4.06401 7.0960149999999995 0 0 0
464 1 20.32005 6.0960149999999995 7.0960149999999995 0 0 0
465 1 24.384059999999998 4.06401 5.06401 0 0 0
466 1 26.416064999999996 6.0960149999999995 5.06401 0 0 0
467 1 26.416064999999996 4.06401 7.0960149999999995 0 0 0
468 1 24.384059999999998 6.0960149999999995 7.0960149999999995 0 0 0
469 1 28.448069999999998 4.06401 5.06401 0 0 0
470 1 30.480075 6.0960149999999995 5.06401 0 0 0
471 1 30.480075 4.06401 7.0960149999999995 0 0 0
472 1 28.448069999999998 6.0960149999999995 7.0960149999999995 0 0 0
473 1 32.51208 4.06401 5.06401 0 0 0
474 1 34.544084999999995 6.0960149999999995 5.06401 0 0 0
475 1 34.544084999999995 4.06401 7.0960149999999995 0 0 0
476 1 32.51208 6.0960149999999995 7.0960149999999995 0 0 0
477 1 36.57608999999999 4.06401 5.06401 0 0 0
478 1 38.608095 6.0960149999999995 5.06401 0 0 0
479 1 38.608095 4.06401 7.0960149999999995 0 0 0
480 1 36.57608999999999 6.0960149999999995 7.0960149999999995 0 0 0
481 1 0 8.12802 5.06401 0 0 0
482 1 2.032005 10.160025 5.06401 0 0 0
483 1 2.032005 8.12802 7.0960149999999995 0 0 0
484 1 0 10.160025 7.0960149999999995 0 0 0
485 1 4.06401 8.12802 5.06401 0 0 0
486 1 6.0960149999999995 10.160025 5.06401 0 0 0
487 1 6.0960149999999995 8.12802 7.0960149999999995 0 0 0
488 1 4.06401 10.160025 7.0960149999999995 0 0 0
489 1 8.12802 8.12802 5.06401 0 0 0
490 1 10.160025 10.160025 5.06401 0 0 0
491 1 10.160025 8.12802 7.0960149999999995 0 0 0
492 1 8.12802 10.160025 7.0960149999999995 0 0 0
493 1 12.192029999999999 8.12802 5.06401 0 0 0
494 1 14.224034999999999 10.160025 5.06401 0 0 0
495 1 14.224034999999999 8.12802 7.0960149999999995 0 0 0
496 1 12.192029999999999 10.160025 7.0960149999999995 0 0 0
497 1 16.25604 8.12802 5.06401 0 0 0
498 1 18.288044999999997 10.160025 5.06401 0 0 0
499 1 18.288044999999997 8.12802 7.0960149999999995 0 0 0
500 1 16.25604 10.160025 7.0960149999999995 0 0 0
501 1 20.32005 8.12802 5.06401 0 0 0
502 1 22.352055 10.160025 5.06401 0 0 0
503 1 22.352055 8.12802 7.0960149999999995 0 0 0
504 1 20.32005 10.160025 7.0960149999999995 0 0 0
505 1 24.384059999999998 8.12802 5.06401 0 0 0
506 1 26.416064999999996 10.160025 5.06401 0 0 0
507 1 26.416064999999996 8.12802 7.0960149999999995 0 0 0
508 1 24.384059999999998 10.160025 7.0960149999999995 0 0 0
509 1 28.448069999999998 8.12802 5.06401 0 0 0
510 1 30.480075 10.160025 5.06401 0 0 0
511 1 30.480075 8.12802 7.0960149999999995 0 0 0
512 1 28.448069999999998 10.160025 7.0960149999999995 0 0 0
513 1 32.51208 8.12802 5.06401 0 0 0
514 1 34.544084999999995 10.160025 5.06401 0 0 0
515 1 34.544084999999995 8.12802 7.0960149999999995 0 0 0
516 1 32.51208 10.160025 7.0960149999999995 0 0 0
517 1 36.57608999999999 8.12802 5.06401 0 0 0
518 1 38.608095 10.160025 5.06401 0 0 0
519 1 38.608095 8.12802 7.0960149999999995 0 0 0
520 1 36.57608999999999 10.160025 7.0960149999999995 0 0 0
521 1 0 12.192029999999999 5.06401 0 0 0
522 1 2.032005 14.224034999999999 5.06401 0 0 0
523 1 2.032005 12.192029999999999 7.0960149999999995 0 0 0
524 1 0 14.224034999999999 7.0960149999999995 0 0 0
525 1 4.06401 12.192029999999999 5.06401 0 0 0
526 1 6.0960149999999995 14.224034999999999 5.06401 0 0 0
527 1 6.0960149999999995 12.192029999999999 7.0960149999999995 0 0 0
528 1 4.06401 14.224034999999999 7.0960149999999995 0 0 0
529 1 8.12802 12.192029999999999 5.06401 0 0 0
530 1 10.160025 14.224034999999999 5.06401 0 0 0
531 1 10.160025 12.192029999999999 7.0960149999999995 0 0 0
532 1 8.12802 14.224034999999999 7.0960149999999995 0 0 0
533 1 12.192029999999999 12.192029999999999 5.06401 0 0 0
534 1 14.224034999999999 14.224034999999999 5.06401 0 0 0
535 1 14.224034999999999 12.192029999999999 7.0960149999999995 0 0 0
536 1 12.192029999999999 14.224034999999999 7.0960149999999995 0 0 0
537 1 16.25604 12.192029999999999 5.06401 0 0 0
538 1 18.288044999999997 14.224034999999999 5.06401 0 0 0
539 1 18.288044999999997 12.192029999999999 7.0960149999999995 0 0 0
540 1 16.25604 14.224034999999999 7.0960149999999995 0 0 0
541 1 20.32005 12.192029999999999 5.06401 0 0 0
542 1 22.352055 14.224034999999999 5.06401 0 0 0
543 1 22.352055 12.192029999999999 7.0960149999999995 0 0 0
544 1 20.32005 14.224034999999999 7.0960149999999995 0 0 0
545 1 24.384059999999998 12.192029999999999 5.06401 0 0 0
546 1 26.416064999999996 14.224034999999999 5.06401 0 0 0
547 1 26.416064999999996 12.192029999999999 7.0960149999999995 0 0 0
548 1 24.384059999999998 14.224034999999999 7.0960149999999995 0 0 0
549 1 28.448069999999998 12.192029999999999 5.06401 0 0 0
550 1 30.480075 14.224034999999999 5.06401 0 0 0
551 1 30.480075 12.192029999999999 7.0960149999999995 0 0 0
552 1 28.448069999999998 14.224034999999999 7.0960149999999995 0 0 0
553 1 32.51208 12.192029999999999 5.06401 0 0 0
554 1 34.544084999999995 14.224034999999999 5.06401 0 0 0
555 1 34.544084999999995 12.192029999999999 7.0960149999999995 0 0 0
556 1 32.51208 14.224034999999999 7.0960149999999995 0 0 0
557 1 36.57608999999999 12.192029999999999 5.06401 0 0 0
558 1 38.608095 14.224034999999999 5.06401 0 0 0
559 1 38.608095 12.192029999999999 7.0960149999999995 0 0 0
560 1 36.57608999999999 14.224034999999999 7.0960149999999995 0 0 0
561 1 0 16.25604 5.06401 0 0 0
562 1 2.032005 18.288044999999997 5.06401 0 0 0
563 1 2.032005 16.25604 7.0960149999999995 0 0 0
564 1 0 18.288044999999997 7.0960149999999995 0 0 0
565 1 4.06401 16.25604 5.06401 0 0 0
566 1 6.0960149999999995 18.288044999999997 5.06401 0 0 0
567 1 6.0960149999999995 16.25604 7.0960149999999995 0 0 0
568 1 4.06401 18.288044999999997 7.0960149999999995 0 0 0
569 1 8.12802 16.25604 5.06401 0 0 0
570 1 10.160025 18.288044999999997 5.06401 0 0 0
571 1 10.160025 16.25604 7.0960149999999995 0 0 0
572 1 8.12802 18.288044999999997 7.0960149999999995 0 0 0
573 1 12.192029999999999 16.25604 5.06401 0 0 0
574 1 14.224034999999999 18.288044999999997 5.06401 0 0 0
575 1 14.224034999999999 16.25604 7.0960149999999995 0 0 0
576 1 12.192029999999999 18.288044999999997 7.0960149999999995 0 0 0
577 1 16.25604 16.25604 5.06401 0 0 0
578 1 18.288044999999997 18.288044999999997 5.06401 0 0 0
579 1 18.288044999999997 16.25604 7.0960149999999995 0 0 0
580 1 16.25604 18.288044999999997 7.0960149999999995 0 0 0
581 1 20.32005 16.25604 5.06401 0 0 0
582 1 22.352055 18.288044999999997 5.06401 0 0 0
583 1 22.352055 16.25604 7.0960149999999995 0 0 0
584 1 20.32005 18.288044999999997 7.0960149999999995 0 0 0
585 1 24.384059999999998 16.25604 5.06401 0 0 0
586 1 26.416064999999996 18.288044999999997 5.06401 0 0 0
587 1 26.416064999999996 16.25604 7.0960149999999995 0 0 0
588 1 24.384059999999998 18.288044999999997 7.0960149999999995 0 0 0
589 1 28.448069999999998 16.25604 5.06401 0 0 0
590 1 30.480075 18.288044999999997 5.06401 0 0 0
591 1 30.480075 16.25604 7.0960149999999995 0 0 0
592 1 28.448069999999998 18.288044999999997 7.0960149999999995 0 0 0
593 1 32.51208 16.25604 5.06401 0 0 0
594 1 34.544084999999995 18.288044999999997 5.06401 0 0 0
595 1 34.544084999999995 16.25604 7.0960149999999995 0 0 0
596 1 32.51208 18.288044999999997 7.0960149999999995 0 0 0
597 1 36.57608999999999 16.25604 5.06401 0 0 0
598 1 38.608095 18.288044999999997 5.06401 0 0 0
599 1 38.608095 16.25604 7.0960149999999995 0 0 0
600 1 36.57608999999999 18.288044999999997 7.0960149999999995 0 0 0
601 1 0 20.32005 5.06401 0 0 0
602 1 2.032005 22.352055 5.06401 0 0 0
603 1 2.032005 20.32005 7.0960149999999995 0 0 0
604 1 0 22.352055 7.0960149999999995 0 0 0
605 1 4.06401 20.32005 5.06401 0 0 0
606 1 6.0960149999999995 22.352055 5.06401 0 0 0
607 1 6.0960149999999995 20.32005 7.0960149999999995 0 0 0
608 1 4.06401 22.352055 7.0960149999999995 0 0 0
609 1 8.12802 20.32005 5.06401 0 0 0
610 1 10.160025 22.352055 5.06401 0 0 0
611 1 10.160025 20.32005 7.0960149999999995 0 0 0
612 1 8.12802 22.352055 7.0960149999999995 0 0 0
613 1 12.192029999999999 20.32005 5.06401 0 0 0
614 1 14.224034999999999 22.352055 5.06401 0 0 0
615 1 14.224034999999999 20.32005 7.0960149999999995 0 0 0
616 1 12.192029999999999 22.352055 7.0960149999999995 0 0 0
617 1 16.25604 20.32005 5.06401 0 0 0
618 1 18.288044999999997 22.352055 5.06401 0 0 0
619 1 18.288044999999997 20.32005 7.0960149999999995 0 0 0
620 1 16.25604 22.352055 7.0960149999999995 0 0 0
621 1 20.32005 20.32005 5.06401 0 0 0
622 1 22.352055 22.352055 5.06401 0 0 0
623 1 22.352055 20.32005 7.0960149999999995 0 0 0
624 1 20.32005 22.352055 7.0960149999999995 0 0 0
625 1 24.384059999999998 20.32005 5.06401 0 0 0
626 1 26.416064999999996 22.352055 5.06401 0 0 0
627 1 26.416064999999996 20.32005 7.0960149999999995 0 0 0
628 1 24.384059999999998 22.352055 7.0960149999999995 0 0 0
629 1 28.448069999999998 20.32005 5.06401 0 0 0
630 1 30.480075 22.352055 5.06401 0 0 0
631 1 30.480075 20.32005 7.0960149999999995 0 0 0
632 1 28.448069999999998 22.352055 7.0960149999999995 0 0 0
633 1 32.51208 20.32005 5.06401 0 0 0
634 1 34.544084999999995 22.352055 5.06401 0 0 0
635 1 34.544084999999995 20.32005 7.0960149999999995 0 0 0
636 1 32.51208 22.352055 7.0960149999999995 0 0 0
637 1 36.57608999999999 20.32005 5.06401 0 0 0
638 1 38.608095 22.352055 5.06401 0 0 0
639 1 38.608095 20.32005 7.0960149999999995 0 0 0
640 1 36.57608999999999 22.352055 7.0960149999999995 0 0 0
641 1 0 24.384059999999998 5.06401 0 0 0
642 1 2.032005 26.416064999999996 5.06401 0 0 0
643 1 2.032005 24.384059999999998 7.0960149999999995 0 0 0
644 1 0 26.416064999999996 7.0960149999999995 0 0 0