LAMMPS data file via write_data, version 29 Sep 2021, timestep = 70000000

11800 atoms
2 atom types

0 40.6401 xlo xhi
0 40.6401 ylo yhi
0 216.27342571956325 zlo zhi

Masses

1 196.966569
2 39.95

Atoms # atomic

1 1 0 0 0.9999999999999997 0 0 0
2 1 2.032005 2.032005 0.9999999999999997 0 0 0
5 1 4.06401 0 0.9999999999999997 0 0 0
6 1 6.0960149999999995 2.032005 0.9999999999999997 0 0 0
8 1 4.032929251673926 2.0202668049638963 3.069024562659113 0 0 0
41 1 0 4.06401 0.9999999999999997 0 0 0
42 1 2.032005 6.0960149999999995 0.9999999999999997 0 0 0
43 1 2.0094229088984803 4.072233717519221 3.0750789726680066 0 0 0
45 1 4.06401 4.06401 0.9999999999999997 0 0 0
46 1 6.0960149999999995 6.0960149999999995 0.9999999999999997 0 0 0
47 1 6.064154539567949 4.067121340267982 3.1059002943544605 0 0 0
48 1 4.041985385477147 6.077014571135247 3.1333612847901304 0 0 0
81 1 0 8.12802 0.9999999999999997 0 0 0
83 1 2.086622333848148 8.175946136479949 3.0824605245700107 0 0 0
85 1 4.06401 8.12802 0.9999999999999997 0 0 0
87 1 6.083474917028242 8.112531154879816 3.1159455873392488 0 0 0
402 1 2.059937435494598 2.0282004303271948 5.126454234293248 0 0 0
406 1 6.09223986443589 2.0503405992574146 5.171314651966178 0 0 0
408 1 4.060777143937216 2.074985046900953 7.192446827690125 0 0 0
442 1 2.0088138238511783 6.1422277630967 5.115331187688484 0 0 0
443 1 1.9937186848208048 4.077437535949824 7.164204059412712 0 0 0
445 1 4.062350543864996 4.0746023441021215 5.159703270309378 0 0 0
446 1 6.113896529186166 6.097809331666357 5.143316889762076 0 0 0
447 1 6.108860309532262 4.087032775759325 7.195271505632279 0 0 0
448 1 4.074646213186388 6.06605451792648 7.204013511571658 0 0 0
483 1 2.032747996059527 8.11591478971781 7.164504359010534 0 0 0
485 1 4.0835520197252935 8.083699924976745 5.164549540035603 0 0 0
487 1 6.116726531118276 8.115800912273219 7.184357911737645 0 0 0
52 1 8.154664376844673 6.100111441008604 3.069828383160667 0 0 0
449 1 8.110630239264252 4.069403720615608 5.1662877896698305 0 0 0
412 1 8.131123938392442 2.0264304891482974 7.199074416239811 0 0 0
452 1 8.125152950041436 6.09649955515405 7.174123701100921 0 0 0
12 1 8.101317884207432 2.055712944327201 3.1209375109300534 0 0 0
489 1 8.132741577701479 8.16329812575782 5.167872360554334 0 0 0
9 1 8.12802 0 0.9999999999999997 0 0 0
49 1 8.12802 4.06401 0.9999999999999997 0 0 0
89 1 8.12802 8.12802 0.9999999999999997 0 0 0
802 1 2.0381918844028144 2.0860678236189267 9.216093593326717 0 0 0
806 1 6.090637044119836 2.02860316532174 9.228041535491986 0 0 0
842 1 1.9699743776668617 6.1239879452893025 9.129218731021556 0 0 0
845 1 4.049724104094876 4.092545233774264 9.223803400971201 0 0 0
846 1 6.126093636688403 6.078756246186298 9.193657932363974 0 0 0
885 1 4.111204566622161 8.093859961728398 9.181763863098988 0 0 0
889 1 8.107770908075747 8.095584117562813 9.260191354516909 0 0 0
849 1 8.17340561873438 4.022494561064639 9.212708843085617 0 0 0
852 1 8.176592205519768 6.105727712426688 11.267651885741397 0 0 0
847 1 6.129132351166918 4.06213659394352 11.187478961812635 0 0 0
843 1 2.0001174157868244 4.106571865643853 11.269308260730947 0 0 0
812 1 8.113846785776492 1.9691002835808618 11.275837958443468 0 0 0
808 1 4.05447001047443 2.0752853018381323 11.227625198893122 0 0 0
810 1 10.155737486034186 1.9923203784114527 9.27291132052118 0 0 0
492 1 8.147173511618679 10.135033942875467 7.2301242704530315 0 0 0
844 1 0.004784840472138117 6.102621442369381 11.207161187224985 0 0 0
401 1 0.02857547865310198 0.009204243582802227 5.155815779603503 0 0 0
7 1 6.049797552519018 0.008054260291679527 3.1380615175233837 0 0 0
850 1 10.122683046106616 6.111180113020131 9.185052061318284 0 0 0
91 1 10.109453756743353 8.162894686189412 3.085004385162308 0 0 0
851 1 10.149249233778734 4.0392675805178655 11.240723695103172 0 0 0
450 1 10.131507479974873 6.145958892080214 5.1221555998271695 0 0 0
807 1 6.082248241801965 0.07482735205613049 11.256898289815684 0 0 0
482 1 2.082509563779639 10.157034672033824 5.127352843783078 0 0 0
892 1 8.121402547711636 10.153385964439073 11.267790936717024 0 0 0
886 1 6.075969637195207 10.138784402113322 9.268534065960335 0 0 0
882 1 2.0205897689526098 10.131508678390967 9.15634625859744 0 0 0
805 1 4.070046542576925 0.0017442895359229568 9.27143760447631 0 0 0
403 1 2.061797444287432 0.024677240732000734 7.166432744796751 0 0 0
848 1 4.022122375995178 6.060908013043565 11.176015539134852 0 0 0
883 1 1.99001816528535 8.147543245078117 11.231864765412098 0 0 0
804 1 0.03914109862034594 2.0595355936079196 11.268643064122603 0 0 0
410 1 10.157674562244376 1.9926532644325474 5.149297934429866 0 0 0
809 1 8.122401965410056 0.00028707840129982287 9.175728800976529 0 0 0
444 1 0.001532780557411684 6.148946763119588 7.16696311583301 0 0 0
801 1 0.005391568779648578 0.0016475739109367284 9.22072970623574 0 0 0
491 1 10.16426304441378 8.128804401826773 7.16718610341932 0 0 0
891 1 10.211892462533994 8.172407759193584 11.241527377117723 0 0 0
451 1 10.174607444432109 4.0496815691840435 7.180126693648935 0 0 0
51 1 10.160802822874073 4.038961192865274 3.113864903839227 0 0 0
10 1 10.160025 2.032005 0.9999999999999997 0 0 0
13 1 12.192029999999999 0 0.9999999999999997 0 0 0
14 1 14.224035 2.032005 0.9999999999999997 0 0 0
16 1 12.20998165673051 2.078802438973177 3.0587045685489604 0 0 0
50 1 10.160025 6.0960149999999995 0.9999999999999997 0 0 0
53 1 12.192029999999999 4.06401 0.9999999999999997 0 0 0
54 1 14.224035 6.0960149999999995 0.9999999999999997 0 0 0
55 1 14.219908078228803 4.109048697124301 3.0662855811086662 0 0 0
56 1 12.204069971969373 6.135177464456812 3.0833266232419456 0 0 0
93 1 12.192029999999999 8.12802 0.9999999999999997 0 0 0
95 1 14.268510760880359 8.175987950817703 3.126331540786114 0 0 0
414 1 14.214541194020864 2.077004813012752 5.134516112726051 0 0 0
416 1 12.203463181626315 2.0470842804601124 7.217923312755549 0 0 0
453 1 12.16734388153521 4.092004854310574 5.086571965199999 0 0 0
454 1 14.245584425653375 6.1246379111455145 5.111859176888684 0 0 0
455 1 14.250619728650829 4.072246815268377 7.168773609748354 0 0 0
456 1 12.151811288473988 6.098238867840634 7.173809227183646 0 0 0
493 1 12.188984265823708 8.164612282740721 5.147673194921288 0 0 0
495 1 14.188355426893041 8.126477630649134 7.183712049764943 0 0 0
460 1 16.256084313321242 6.10466051477961 7.154451558416159 0 0 0
20 1 16.229812963128968 2.0093666855656656 3.129303843570179 0 0 0
497 1 16.22523848877558 8.124566829735794 5.1626198198328 0 0 0
420 1 16.300103905647372 2.0110193171631896 7.186168875388025 0 0 0
457 1 16.220744067161164 4.0717544277071 5.125899714352897 0 0 0
60 1 16.283070610985654 6.129048162825199 3.115986648375439 0 0 0
17 1 16.25604 0 0.9999999999999997 0 0 0
18 1 18.288044999999997 2.032005 0.9999999999999997 0 0 0
57 1 16.25604 4.06401 0.9999999999999997 0 0 0
58 1 18.288044999999997 6.0960149999999995 0.9999999999999997 0 0 0
59 1 18.239481968800344 4.047228133441649 3.0836041928679543 0 0 0
97 1 16.25604 8.12802 0.9999999999999997 0 0 0
99 1 18.31078083780609 8.102029684858948 3.095288703265589 0 0 0
418 1 18.29356793937195 2.019307476218811 5.167842350701179 0 0 0
458 1 18.25281991617597 6.063204500374116 5.152485340912167 0 0 0
459 1 18.246889927467553 4.051478157755208 7.177608485980914 0 0 0
499 1 18.28531288542909 8.100666801685477 7.14690285445953 0 0 0
814 1 14.219199890200354 2.0557004879832075 9.20008705203858 0 0 0
853 1 12.21445968909208 4.064911685526429 9.213904487662864 0 0 0
854 1 14.229620678450903 6.1025951037216295 9.213381665722768 0 0 0
893 1 12.234913564099879 8.150155553772969 9.23983023433844 0 0 0
857 1 16.249987002721312 4.044732005809306 9.210765724337742 0 0 0
897 1 16.27355465843134 8.10034732990862 9.184326709413963 0 0 0
818 1 18.241966378956494 1.9706794925545439 9.197098926507335 0 0 0
858 1 18.30269997623149 6.139148456352174 9.213295151921415 0 0 0
856 1 12.153381312319416 6.052705787452641 11.232589895099654 0 0 0
899 1 18.268758743922263 8.117328182725158 11.230864290577804 0 0 0
895 1 14.24767364916314 8.145388353378234 11.253462212268403 0 0 0
11 1 10.179352957249769 0.02023506958047621 3.102937206312155 0 0 0
855 1 14.201739606693765 4.079174875660656 11.253371792152269 0 0 0
859 1 18.236727895293487 4.051874540791435 11.215829500882089 0 0 0
861 1 20.265836366801956 4.030618999346816 9.20730250495825 0 0 0
464 1 20.31165107300643 6.024527018304124 7.135265299780302 0 0 0
424 1 20.31004133518677 2.0242286429705154 7.190149145725136 0 0 0
461 1 20.29399832694104 4.016783461474045 5.110144122388541 0 0 0
64 1 20.315822547233374 6.039695224741105 3.073857418803654 0 0 0
24 1 20.30434274504631 2.032615451387833 3.0978151699793544 0 0 0
500 1 16.311708754049 10.114955627404493 7.215972546676472 0 0 0
864 1 20.294024156137283 6.084493219369536 11.232117850139002 0 0 0
898 1 18.333168219678015 10.085388000748761 9.206828927836732 0 0 0
504 1 20.316874825816303 10.104261553713888 7.145510409498416 0 0 0
96 1 12.233657225433157 10.150848076877557 3.126625676045034 0 0 0
415 1 14.221146360145783 0.0036081774060131113 7.177608246136548 0 0 0
19 1 18.306352167517318 0.02361098418079927 3.0843724945902595 0 0 0
417 1 16.214912391912346 0.04701785753098583 5.126022765858071 0 0 0
820 1 16.25041936693075 2.0269627344978214 11.211760424053598 0 0 0
488 1 4.0601328918394 10.161664172603794 7.163031008592173 0 0 0
921 1 0.010115079732781541 12.162990760626883 9.163724884074334 0 0 0
924 1 0.023276018240929713 14.241510591424325 11.256760298253043 0 0 0
564 1 0.007056977586322149 18.269157910166427 7.163733136847841 0 0 0
124 1 0.04778614115535177 14.220538158233966 3.0775339194136078 0 0 0
1011 1 10.143284811578933 20.31403304634619 11.198671960443688 0 0 0
486 1 6.083829258334391 10.183733088046745 5.130880205936036 0 0 0
88 1 4.094241687624347 10.195987005027053 3.149595554721924 0 0 0
884 1 0.042902919310507805 10.197938513611875 11.258285194853077 0 0 0
961 1 0.05775312817746192 16.268118739667813 9.214963502891177 0 0 0
888 1 4.028927098048074 10.229948272491136 11.235249777651504 0 0 0
92 1 8.16381998040008 10.184614879471555 3.0589930834610595 0 0 0
82 1 2.032005 10.160025 0.9999999999999997 0 0 0
86 1 6.0960149999999995 10.160025 0.9999999999999997 0 0 0
121 1 0 12.192029999999999 0.9999999999999997 0 0 0
122 1 2.032005 14.224035 0.9999999999999997 0 0 0
123 1 2.0497410402868854 12.15080883436255 3.139080868144808 0 0 0
125 1 4.06401 12.192029999999999 0.9999999999999997 0 0 0
126 1 6.0960149999999995 14.224035 0.9999999999999997 0 0 0
127 1 6.118659313690886 12.222685045732685 3.1346741068624504 0 0 0
128 1 4.074970682475234 14.23276381676765 3.1140291680955645 0 0 0
161 1 0 16.25604 0.9999999999999997 0 0 0
162 1 2.032005 18.288044999999997 0.9999999999999997 0 0 0
163 1 1.9844259888183426 16.26884047392754 3.113470348838906 0 0 0
165 1 4.06401 16.25604 0.9999999999999997 0 0 0
166 1 6.0960149999999995 18.288044999999997 0.9999999999999997 0 0 0
167 1 6.095807696672384 16.253391465324228 3.105726881779559 0 0 0
168 1 4.05826519333187 18.2829770262309 3.084170254773706 0 0 0
522 1 2.0518823706876117 14.256348354192191 5.1433359116696895 0 0 0
523 1 1.9868176406192837 12.178009851645223 7.153256531715644 0 0 0
525 1 4.108653775682629 12.221128408442521 5.202598934438859 0 0 0
526 1 6.0942398395924 14.18982841471046 5.159302528218262 0 0 0
527 1 6.13234320204334 12.159703161181508 7.21014053787646 0 0 0
528 1 4.0862629204976635 14.17614730310323 7.26618021106941 0 0 0
562 1 2.0575153626544473 18.28822981987297 5.170991178017967 0 0 0
563 1 2.0931185169187003 16.250490826296605 7.200361691612807 0 0 0
565 1 4.051299478633725 16.209191184233482 5.190002749479931 0 0 0
566 1 6.085965946944683 18.285449827231353 5.1106399107500895 0 0 0
567 1 6.039446065008717 16.24717102626485 7.200386561842895 0 0 0
568 1 4.0595127343072726 18.286890489193926 7.186192246119239 0 0 0
132 1 8.125958803308594 14.198421478769307 3.0527084213373645 0 0 0
532 1 8.146624452886 14.208655974973054 7.218494831459242 0 0 0
529 1 8.146232431005059 12.171973789241473 5.113073675800548 0 0 0
172 1 8.198750588113437 18.27117360932325 3.1046105247633538 0 0 0
569 1 8.083687000754436 16.17884919735188 5.155198074476101 0 0 0
572 1 8.09021413993291 18.273769007992055 7.122139253876249 0 0 0
129 1 8.12802 12.192029999999999 0.9999999999999997 0 0 0
169 1 8.12802 16.25604 0.9999999999999997 0 0 0
969 1 8.096633565576811 16.279987540291213 9.184097219300593 0 0 0
929 1 8.118007790192056 12.13666665096582 9.240975116552724 0 0 0
966 1 6.051336402470408 18.346292652286376 9.262317417195517 0 0 0
965 1 4.123167914248399 16.27968241285599 9.253160129795145 0 0 0
962 1 2.0315703545784567 18.317305310362084 9.204132109492665 0 0 0
926 1 6.12766893020423 14.211248968618325 9.208616372475271 0 0 0
925 1 4.04324845590077 12.136934551333374 9.164651025741584 0 0 0
922 1 2.0088733158782652 14.250006267267311 9.219732351937964 0 0 0
928 1 4.074048031818325 14.23079744608015 11.264262825455527 0 0 0
972 1 8.124228016988123 18.28109053469838 11.214874524368208 0 0 0
968 1 4.087705955921498 18.266719000318343 11.26280545309455 0 0 0
963 1 2.0542201177403103 16.292029837919202 11.260379280447463 0 0 0
923 1 2.042912081472744 12.21976913262479 11.203930311006568 0 0 0
970 1 10.155053951837369 18.24592123650571 9.21028735069166 0 0 0
203 1 1.9814930643466826 20.298673546032934 3.105304131546768 0 0 0
1003 1 2.0940657783053545 20.31616532958293 11.248386727809255 0 0 0
932 1 8.13517368425076 14.230908221540924 11.203976632144794 0 0 0
171 1 10.151673657357929 16.206180911679695 3.1097218034304053 0 0 0
1007 1 6.101374917773058 20.27363656981394 11.23199953176723 0 0 0
971 1 10.112375645673591 16.22996883599287 11.218478032128921 0 0 0
570 1 10.132795773675983 18.21334489968584 5.1447644095471565 0 0 0
531 1 10.153673916524793 12.165399209335256 7.24474805620378 0 0 0
605 1 4.095569180229511 20.28911918279524 5.1439980120356354 0 0 0
541 1 20.274038592291475 12.181800766357009 5.154621350859965 0 0 0
211 1 10.167404290250275 20.289367323571255 3.0983691298674505 0 0 0
175 1 14.229488611156668 16.33305622181513 3.0842052912672324 0 0 0
944 1 20.29382254215561 14.226789773969072 11.223569481405754 0 0 0
173 1 12.192029999999999 16.25604 0.9999999999999997 0 0 0
581 1 20.297956298514443 16.264761614999053 5.124234764409809 0 0 0
490 1 10.203736924729201 10.16412742950266 5.170604651130274 0 0 0
104 1 20.293754270988227 10.20310199501419 3.087360250260112 0 0 0
894 1 14.207631271697684 10.211341641018814 9.195671601780871 0 0 0
936 1 12.236466635501422 14.241720800706524 11.262691784291125 0 0 0
134 1 14.224035 14.224035 0.9999999999999997 0 0 0
539 1 18.29216236629039 12.169874679902788 7.2073103492039925 0 0 0
933 1 12.17957756607485 12.229052805264006 9.19224433577432 0 0 0
896 1 12.224613078967366 10.18559849039901 11.261002845414183 0 0 0
900 1 16.235097694792007 10.172474826186612 11.184758224638921 0 0 0
496 1 12.21144576645186 10.186627556942732 7.180655701019644 0 0 0
537 1 16.262109631227958 12.162172673240022 5.178306465033769 0 0 0
975 1 14.242633514022932 16.258962140862618 11.208757970450488 0 0 0
180 1 16.28417777359273 18.325054107536673 3.117731271979167 0 0 0
179 1 18.3226690109222 16.21813743411462 3.0925996666404583 0 0 0
940 1 16.282726118690388 14.20445705941593 11.217599656254437 0 0 0
131 1 10.176018911027583 12.203865347351577 3.0768670028001766 0 0 0
611 1 10.207417586877932 20.301392340908844 7.192751883397258 0 0 0
174 1 14.224035 18.288044999999997 0.9999999999999997 0 0 0
178 1 18.288044999999997 18.288044999999997 0.9999999999999997 0 0 0
90 1 10.160025 10.160025 0.9999999999999997 0 0 0
937 1 16.271661917974217 12.212525707807224 9.221756953177577 0 0 0
577 1 16.25645028029866 16.250223024579874 5.149778868717545 0 0 0
613 1 12.158643040367279 20.276956123684926 5.121618773826751 0 0 0
139 1 18.268461677782366 12.211039742991193 3.107545184483966 0 0 0
890 1 10.18116494856622 10.173659960021842 9.25640235419666 0 0 0
575 1 14.232730268634214 16.308430201269097 7.160365364141566 0 0 0
498 1 18.29993207368081 10.162588509865156 5.131374629839155 0 0 0
980 1 16.29413254117349 18.321203005735317 11.228935272932437 0 0 0
100 1 16.247166495945564 10.1736979590032 3.1051938864400745 0 0 0
573 1 12.233299081839348 16.20886057829399 5.122410560455752 0 0 0
138 1 18.288044999999997 14.224035 0.9999999999999997 0 0 0
979 1 18.300284923211915 16.235198178101133 11.2259938091912 0 0 0
938 1 18.34113581404402 14.251504638820938 9.187378425134007 0 0 0
494 1 14.246122227415006 10.184115297923837 5.1598653192681585 0 0 0
935 1 14.208643462479458 12.201579556548392 11.248569122472531 0 0 0
538 1 18.265203997950145 14.245022661991754 5.181259498166477 0 0 0
534 1 14.268367677917734 14.149829783440213 5.150235491765735 0 0 0
136 1 12.234428956602436 14.230541852803354 3.1291074801299783 0 0 0
931 1 10.188641469958462 12.17208104771516 11.256524342100466 0 0 0
530 1 10.192582961495248 14.15285044773366 5.184851176101757 0 0 0
930 1 10.207989201985905 14.171735355199418 9.256503157930359 0 0 0
571 1 10.18537605869123 16.176167178062034 7.2079631294656545 0 0 0
170 1 10.160025 18.288044999999997 0.9999999999999997 0 0 0
540 1 16.287432765665017 14.235460633743005 7.185855764795166 0 0 0
977 1 16.280206903107285 16.207119382915096 9.206665254796585 0 0 0
176 1 12.169918830952705 18.278888999632677 3.1058522547503853 0 0 0
976 1 12.20460042178087 18.285851875646983 11.215338830835918 0 0 0
98 1 18.288044999999997 10.160025 0.9999999999999997 0 0 0
978 1 18.307138109833645 18.267867175471743 9.24136944206036 0 0 0
133 1 12.192029999999999 12.192029999999999 0.9999999999999997 0 0 0
934 1 14.242288912311048 14.186327074715013 9.17835528150901 0 0 0
576 1 12.17514075962702 18.25859701222859 7.1554654183153295 0 0 0
140 1 16.247408296492193 14.245885991261375 3.062625601984118 0 0 0
579 1 18.308700131338615 16.317563744893178 7.170358905223551 0 0 0
536 1 12.229444972579538 14.19409373001668 7.154706947437289 0 0 0
973 1 12.204712072272022 16.198560809503917 9.187110506356236 0 0 0
580 1 16.233119000744296 18.320140841945506 7.229032245174838 0 0 0
533 1 12.217117623783443 12.163819703778989 5.153281543189488 0 0 0
535 1 14.253303742516795 12.173308684436694 7.17206285803477 0 0 0
130 1 10.160025 14.224035 0.9999999999999997 0 0 0
137 1 16.25604 12.192029999999999 0.9999999999999997 0 0 0
574 1 14.223299575971359 18.33080754462082 5.169460652695928 0 0 0
578 1 18.25813774250929 18.329246887533678 5.145366993777129 0 0 0
94 1 14.224035 10.160025 0.9999999999999997 0 0 0
177 1 16.25604 16.25604 0.9999999999999997 0 0 0
974 1 14.244593089424857 18.29127057198098 9.206696074188585 0 0 0
135 1 14.229468362488722 12.188085283792708 3.081474793289636 0 0 0
1015 1 14.289448343054518 20.29571725089462 11.241776995657053 0 0 0
939 1 18.296638777887598 12.19075741920648 11.187735416144745 0 0 0
2046 1 6.108483013594232 6.106859087366668 21.39895533945075 0 0 0
2045 1 4.069148432636204 4.049295038339657 21.38552922012659 0 0 0
2042 1 2.0591382604901534 6.08979462600462 21.361374102658868 0 0 0
2006 1 6.1104841603542654 2.041985073537135 21.35684371012284 0 0 0
2002 1 2.01631059601235 1.9807807105508939 21.367711752175683 0 0 0
1687 1 6.14901074398158 8.10764144567524 19.364044698256833 0 0 0
1683 1 2.110665348906233 8.144508447998307 19.373372258913605 0 0 0
1648 1 4.0828284483600035 6.084760273391952 19.36776369414059 0 0 0
1647 1 6.1136885541484745 4.0928176771622535 19.34313274837502 0 0 0
1643 1 2.026092234076097 4.010512815149091 19.355935453458088 0 0 0
1608 1 4.071363894467532 1.988546763580911 19.390907202609426 0 0 0
1652 1 8.114868568868046 6.0769028167737655 19.306484679009426 0 0 0
1612 1 8.145908792062828 2.0723187872076525 19.356197368474877 0 0 0
2049 1 8.191724301353135 4.141816069829812 21.46080227576285 0 0 0
2089 1 8.188667833366143 8.14624058895669 21.36225547950026 0 0 0
1212 1 8.082082393337865 2.075337939630656 15.357275831490126 0 0 0
1252 1 8.09787573805981 6.134695008589577 15.333767699253974 0 0 0
1649 1 8.105462130879449 4.086187894900437 17.336847639773218 0 0 0
1243 1 2.033612750853389 4.048311679291969 15.268952404430722 0 0 0
1247 1 6.074069883604836 4.112406257503768 15.301299930623372 0 0 0
1283 1 2.043834786452514 8.160470953441138 15.32783850674928 0 0 0
1287 1 6.035432397940937 8.161854409049292 15.220106029432651 0 0 0
1208 1 4.09128155169923 2.0439374387692433 15.32173687985241 0 0 0
1689 1 8.143032496004082 8.135653224341238 17.334786803401993 0 0 0
1602 1 2.0283625663815426 1.947199206899536 17.32547475674825 0 0 0
1606 1 6.071918496486406 2.0352541810844773 17.388268160004298 0 0 0
1642 1 2.057892171490981 6.120049520936685 17.33053410129129 0 0 0
1645 1 4.031962838086977 4.01090195792174 17.373196097233727 0 0 0
1646 1 6.065886760565862 6.105034101997999 17.2532974198759 0 0 0
1685 1 4.067565875131597 8.13274557775243 17.356754579584276 0 0 0
1202 1 2.0660097503758905 2.0365687068356007 13.283045475359474 0 0 0
1206 1 6.115646754377811 2.064370155880983 13.29806800534591 0 0 0
1242 1 2.04255738398809 6.105995118361409 13.271620568625433 0 0 0
1245 1 4.092428689532672 4.054512884853731 13.271523169085263 0 0 0
1246 1 6.066686691053146 6.037753674788269 13.262340405339826 0 0 0
1285 1 3.986699919619523 8.139047320406172 13.206158236138752 0 0 0
1248 1 4.067881346126584 6.111708567383716 15.26700430898554 0 0 0
1249 1 8.1388369896271 4.1066409177141265 13.289591840336671 0 0 0
1289 1 8.147704269306567 8.135764073086706 13.262591271366775 0 0 0
2085 1 4.121188462738719 8.172593167094359 21.4228252394847 0 0 0
2008 1 4.104687239661116 1.9932496922881182 23.393215626730374 0 0 0
2047 1 6.132405746462386 4.040002354163776 23.39603177202622 0 0 0
2048 1 4.062188595087286 6.153356863090214 23.423117665556173 0 0 0
2012 1 8.134850470168653 2.0053535016509274 23.384736169031758 0 0 0
2043 1 2.1018824531479923 4.03148805776698 23.407107795636797 0 0 0
2052 1 8.153930588882364 6.165008196374463 23.378842567984776 0 0 0
2083 1 2.0448111100100985 8.198518239629447 23.37190878575971 0 0 0
2087 1 6.1542225533272825 8.119058929408531 23.418679768452293 0 0 0
1291 1 10.155032663762434 8.149856496628754 15.30276421371918 0 0 0
1204 1 0.040109396311889846 2.062948394132405 15.338275701365479 0 0 0
1244 1 0.00951766197188559 6.099934988439105 15.293898672488059 0 0 0
1610 1 10.156510364486174 2.0151397313061628 17.334996740510256 0 0 0
1281 1 0.00954315899646679 8.130235328503964 13.253577458772801 0 0 0
2004 1 0.0035596032728340585 1.9926030414400062 23.415642448805773 0 0 0
1641 1 0.06871423970557299 4.051852909341402 17.302796522142273 0 0 0
1644 1 0.023655451863911013 6.146950608169205 19.310105011442083 0 0 0
2041 1 0.040234910227058995 4.074451840849729 21.373270414552056 0 0 0
2081 1 0.04329176057613395 8.162816583055262 21.405677021507405 0 0 0
1604 1 0.007375815513126329 2.0174572768234076 19.399007918762806 0 0 0
1684 1 0.07333671905723967 10.144164708125091 19.383398542147617 0 0 0
1609 1 8.095816634793929 0.0016805612764363986 17.391884682143353 0 0 0
1251 1 10.1266814549933 4.008912270266137 15.341761282549442 0 0 0
1210 1 10.116236727372574 2.0295494855834035 13.279265557734345 0 0 0
1292 1 8.113690300464427 10.127111043282174 15.227759172082612 0 0 0
1681 1 0.02769141892515402 8.185814340322123 17.313074342032387 0 0 0
887 1 6.024041568024427 8.08490048242014 11.302084010698925 0 0 0
1250 1 10.153462139192735 6.113753700364548 13.34755259978856 0 0 0
2051 1 10.158597313872795 4.058994528897256 23.432270655635747 0 0 0
1621 1 20.317757824718147 0.007910405089548538 17.38039722257328 0 0 0
2091 1 10.201919042603016 8.197311045324433 23.384018831833846 0 0 0
1213 1 12.141338885210136 0.026683451458583366 13.291593014595371 0 0 0
1650 1 10.176209045349855 6.064461045986096 17.344231712905625 0 0 0
2050 1 10.17047754989945 6.132577503039726 21.373451329404876 0 0 0
1651 1 10.222121688840636 4.07924295164197 19.325387126303898 0 0 0
2010 1 10.16201483010828 2.058490793919844 21.380232116623695 0 0 0
1691 1 10.164730356918252 8.2103788257296 19.309298745784382 0 0 0
2093 1 12.185208491350362 8.209018958113452 21.419149892136662 0 0 0
2054 1 14.227485929832799 6.111586828753776 21.38264079574334 0 0 0
2053 1 12.174972006181049 4.095731355712854 21.43819997080226 0 0 0
2014 1 14.194171762935127 2.0129222256697177 21.38424414174641 0 0 0
1695 1 14.225333030708383 8.142316726057215 19.385312054048995 0 0 0
1656 1 12.22069271204445 6.143121053541397 19.341903691926113 0 0 0
1655 1 14.200421138683202 4.056745660203404 19.317169251149554 0 0 0
1616 1 12.191070133714588 2.0166049914898334 19.368223857676366 0 0 0
2097 1 16.20451644790639 8.137912458012746 21.400010461918683 0 0 0
1660 1 16.240463143078884 6.107195526370638 19.388411155802864 0 0 0
2057 1 16.229002677404413 4.024434100622806 21.430523526559433 0 0 0
1620 1 16.181936292558614 2.0048198581877 19.35455097895475 0 0 0
2058 1 18.19801307607804 6.055536110046385 21.38349373765829 0 0 0
2018 1 18.25181078926908 1.982128628166235 21.409854713920804 0 0 0
1699 1 18.289803679780896 8.131037085241019 19.398536570230913 0 0 0
1659 1 18.225433183298826 4.04913759984881 19.442468417001905 0 0 0
1220 1 16.27998156804161 2.0099885893775737 15.308050652620585 0 0 0
1259 1 18.284725882739117 4.01410277145633 15.280310102601922 0 0 0
1618 1 18.296581673288337 2.023486791087138 17.365901026957516 0 0 0
1658 1 18.266089373927795 6.067304315668245 17.4064600400607 0 0 0
1697 1 16.250679901794378 8.15902127729711 17.39705163653098 0 0 0
1295 1 14.202065313349767 8.143253102175597 15.348896505913483 0 0 0
1657 1 16.250302066742886 4.077688231163641 17.34933826814472 0 0 0
1614 1 14.15817502470931 2.009422394677593 17.33935317059221 0 0 0
1653 1 12.1747132423386 4.050805632197031 17.272418106993 0 0 0
1654 1 14.23416867538588 6.107985280102144 17.343846312033453 0 0 0
1693 1 12.218068721758089 8.169256930799566 17.355885217911812 0 0 0
1214 1 14.192623878939916 2.0458993262359004 13.276678236393723 0 0 0
1253 1 12.166438981484166 4.062410643823224 13.334753857343062 0 0 0
1254 1 14.20560839701201 6.140701899958152 13.289167585621376 0 0 0
1293 1 12.201230228892939 8.157479082912323 13.265791322560615 0 0 0
1216 1 12.159685842719103 1.990688645296937 15.275053392488111 0 0 0
1255 1 14.263815997369392 4.060970147692771 15.337388109437985 0 0 0
1256 1 12.210297473763697 6.097477984388066 15.306361478791603 0 0 0
1257 1 16.22674929756799 4.0355546265464115 13.281219519613012 0 0 0
1297 1 16.25076106308713 8.141245887431007 13.247269270911898 0 0 0
1218 1 18.284417067008853 2.0104215543708754 13.248833232586922 0 0 0
1258 1 18.31904029485299 6.126310177387775 13.287194270324736 0 0 0
1260 1 16.261632796618372 6.143410015975881 15.342912489366235 0 0 0
1299 1 18.27728812433759 8.104460379045943 15.317911723783146 0 0 0
2060 1 16.236349261616724 6.075824327863025 23.449640606066566 0 0 0
2056 1 12.208996921764612 6.132736842168282 23.394321183517476 0 0 0
2099 1 18.19392991876886 8.135624599631024 23.44775410472305 0 0 0
2059 1 18.27883856489077 4.082137811096432 23.441438796801926 0 0 0
2020 1 16.233955562935556 2.005673861717977 23.447881184916426 0 0 0
2095 1 14.215968304777896 8.11219129969542 23.435315228510802 0 0 0
2016 1 12.200947307375497 2.0470438317165343 23.475953551678064 0 0 0
2055 1 14.198602251933371 4.069588516531529 23.455788727154296 0 0 0
2098 1 18.223729162153287 10.148087249695038 21.41498133295721 0 0 0
1300 1 16.307576464525734 10.12727975798649 15.305288568520037 0 0 0
2100 1 16.23174591768682 10.13464727973787 23.473755269788693 0 0 0
2024 1 20.273072507361242 2.0265703686601975 23.445374197313946 0 0 0
2101 1 20.222426105680157 8.130384454830383 21.403881402234127 0 0 0
1624 1 20.282857518042633 2.0152139341638504 19.4082847567774 0 0 0
2061 1 20.294134028991948 4.080314826253777 21.459848233276674 0 0 0
1664 1 20.280997467271145 6.063101699093878 19.39802742108109 0 0 0
1304 1 20.309217411583937 10.140528589000239 15.301755037708059 0 0 0
1290 1 10.188829304790772 10.150057631368648 13.271765363197373 0 0 0
2104 1 20.31159329612433 10.09685143021508 23.45782792932641 0 0 0
1661 1 20.272450532266223 4.0412479401709795 17.37686546231968 0 0 0
1704 1 20.287917136000278 10.143565113675777 19.399109239934102 0 0 0
1298 1 18.27277098408921 10.145088283287038 13.248405621569582 0 0 0
2064 1 20.280447899159586 6.15190744782686 23.44040015227933 0 0 0
1217 1 16.205523085706247 0.0891367833650413 13.274796484316013 0 0 0
2017 1 16.229160824362335 0.0018764125767771124 21.387291185274357 0 0 0
860 1 16.265908335860672 6.087459047026605 11.282531114733372 0 0 0
816 1 12.182554831608822 2.0494401849844825 11.29598595398166 0 0 0
1219 1 18.263556394689722 0.004670538297801841 15.337840411543676 0 0 0
2082 1 2.09903072291239 10.160271891970956 21.38935750422428 0 0 0
2092 1 8.135279605360957 10.163300201498863 23.37957332430306 0 0 0
1361 1 0.02703859672683042 16.280184751140244 13.301814112422658 0 0 0
2084 1 0.0169488850688567 10.190633606102232 23.41766977688734 0 0 0
2088 1 4.110321134346613 10.221048236398941 23.381858008642656 0 0 0
1286 1 6.0960381029251 10.21090620712864 13.28076679710886 0 0 0
1284 1 0.02714169083331646 10.197195018778977 15.319078860565098 0 0 0
1364 1 0.017936746912852138 18.278424848484576 15.265405616255018 0 0 0
1321 1 0.03839586852272192 12.218126429522364 13.313108282900997 0 0 0
1761 1 0.02000447066781123 16.299063373131677 17.28601539227181 0 0 0
1690 1 10.145634394688924 10.219203716797615 17.308397667128457 0 0 0
1288 1 4.07506147912612 10.206159832789938 15.301381755489798 0 0 0
2086 1 6.1028690852739995 10.176776682203478 21.386848120457167 0 0 0
1692 1 8.146503588242295 10.175318379358522 19.345577996299912 0 0 0
1282 1 2.0438723939593757 10.194745792680285 13.321251028862308 0 0 0
2121 1 0.037122576166989246 12.185902535236554 21.39882981864988 0 0 0
1764 1 0.0036037116859420535 18.286976847283 19.367390039377213 0 0 0
1682 1 2.0618263516732798 10.174673679796898 17.353445707424253 0 0 0