LAMMPS data file via write_data, version 23 Jun 2022, timestep = 0

9620 atoms
2 atom types
7215 bonds
1 bond types

0 45 xlo xhi
0 45 ylo yhi
0 45 zlo zhi

Masses

1 14.0067
2 1.008

Pair Coeffs # lj/cut/coul/long

1 0.36346 3.3763
2 0 0

Bond Coeffs # harmonic

1 0 0.9572

Atoms # full

1 1 1 -0.9993 44.816549046826815 0.10754481142617436 0.20312549708285954 -1 0 0
2 1 2 0.3331 0.6032937192215285 0.7202788992563637 0.021476775453881963 0 0 0
3 1 2 0.3331 44.36599028600257 44.95859864285076 44.307461613747584 -1 -1 -1
4 1 2 0.3331 0.21416694794908447 44.2135776464667 0.46793611371567356 0 -1 0
5 2 1 -0.9993 2.3493428460359853 2.6482509153740867 0.20446074024175992 0 0 0
6 2 2 0.3331 3.1224328378202872 2.12020170579059 0.5929223173136646 0 0 0
7 2 2 0.3331 2.7516907181555577 3.2536589025415514 44.49806190893278 0 0 -1
8 2 2 0.3331 1.7765335979881698 1.9778884762937716 44.704555033511795 0 0 -1
9 3 1 -0.9993 2.4522861336753894 0.28979692213949493 2.485125957885202 0 0 0
10 3 2 0.3331 3.428588223627924 0.060093936701865275 2.631677203650474 0 0 0
11 3 2 0.3331 2.1745797647541627 44.80288071945668 1.6406179743672613 0 -1 0
12 3 2 0.3331 1.9445458779425238 44.847228421701956 3.2425788640970623 0 -1 0
13 4 1 -0.9993 44.879164002290445 2.3061597620162773 2.6852153612580527 -1 0 0
14 4 2 0.3331 0.8666626740253652 2.137803473570711 2.5305898993748066 0 0 0
15 4 2 0.3331 44.8071944917649 3.2616519178138956 3.015755948423886 -1 0 0
16 4 2 0.3331 44.44697883191928 2.294384846599116 1.7684387909432548 -1 0 0
17 5 1 -0.9993 4.785428422349691 0.012032784546112403 44.7992654578536 0 0 -1
18 5 2 0.3331 4.8145409621518835 44.1253572253504 0.28953621238749394 0 -1 0
19 5 2 0.3331 4.6931993466012205 0.7239145879108709 0.5148910901675385 0 0 0
20 5 2 0.3331 5.706831268897204 0.13869540219261908 44.396307239591366 0 0 -1
21 6 1 -0.9993 7.212420920492458 44.99210058610652 2.439041173405861 0 -1 0
22 6 2 0.3331 7.7394457603539095 44.287396702599246 1.936006627138126 0 -1 0
23 6 2 0.3331 7.40925364855553 44.839587656132814 3.4215881867106113 0 -1 0
24 6 2 0.3331 7.6388796705981035 0.880915055161423 2.2033640127454017 0 0 0
25 7 1 -0.9993 5.0045305970271725 2.509379512955111 2.206109536260017 0 0 0
26 7 2 0.3331 5.491601400364188 3.2901916703309815 2.6309635199187227 0 0 0
27 7 2 0.3331 5.439494741742773 1.6729659332808842 2.5784272319828663 0 0 0
28 7 2 0.3331 4.0643732608658665 2.527462883433023 2.584499711838394 0 0 0
29 8 1 -0.9993 10.008637076339928 44.93693312914559 0.2871029030903919 0 -1 0
30 8 2 0.3331 10.905157681610754 44.81198684536643 44.83098260043482 0 -1 -1
31 8 2 0.3331 9.73347038278499 0.8951959129149678 0.10429787580558798 0 0 0
32 8 2 0.3331 9.352734859264327 44.35588411257302 44.7776166206692 0 -1 -1
33 9 1 -0.9993 12.360183795245204 2.5659911255426304 0.2501533659329451 0 0 0
34 9 2 0.3331 13.008557060951604 3.289335374828692 44.96068539647518 0 0 -1
35 9 2 0.3331 11.726461690479361 2.430817230484196 44.47071365561156 0 0 -1
36 9 2 0.3331 12.904797453323829 1.7138562691444816 0.31844758198031264 0 0 0
37 10 1 -0.9993 12.459216215109274 0.20302267320155784 2.7088027377839676 0 0 0
38 10 2 0.3331 12.709848254230662 44.296542788409766 3.0868031338601005 0 -1 0
39 10 2 0.3331 13.198921280085404 0.4497455751563463 2.0612178580194187 0 0 0
40 10 2 0.3331 11.63201425057466 0.050688963232330186 2.1431762703365127 0 0 0
41 11 1 -0.9993 10.234796743324132 2.676120242059073 2.481772111712136 0 0 0
42 11 2 0.3331 9.646729901487452 2.8878577170472814 3.279738985221212 0 0 0
43 11 2 0.3331 10.48450409133726 1.6977838489054706 2.5706883204676374 0 0 0
44 11 2 0.3331 9.633969263851155 2.738238191988175 1.6678005825990145 0 0 0
45 12 1 -0.9993 15.182258130386781 44.770855069203364 44.972528544848906 0 -1 -1
46 12 2 0.3331 14.73033301034212 0.019321402770716603 44.099926306164974 0 0 -1
47 12 2 0.3331 15.652689375635692 0.6098628889393437 0.29215687887990827 0 0 0
48 12 2 0.3331 14.434719483635408 44.59996063908658 0.6353882701062097 0 -1 0
49 13 1 -0.9993 17.791106493311712 2.500450765074958 44.95832371642523 0 0 -1
50 13 2 0.3331 17.37144541053638 3.410131038409885 44.804139164964546 0 0 -1
51 13 2 0.3331 17.530174765517938 2.228407702308049 0.8992324024468558 0 0 0
52 13 2 0.3331 17.30727333063397 1.8610104942071084 44.33830471616337 0 0 -1
53 14 1 -0.9993 17.499215357792455 0.23997078261310578 2.669980922690341 0 0 0
54 14 2 0.3331 17.77315649079961 0.4372554869561502 1.7142395868263773 0 0 0
55 14 2 0.3331 16.589589073625095 44.79631678948518 2.6138283846040467 0 -1 0
56 14 2 0.3331 18.13803907778284 44.52645694094556 3.001951105879235 0 -1 0
57 15 1 -0.9993 19.721838041913976 0.09334203709136049 44.980168322426366 0 0 -1
58 15 2 0.3331 19.789821096515844 44.09607829460438 0.148245186413829 0 -1 0
59 15 2 0.3331 20.232128522232877 0.5390108484028261 0.7340813720018009 0 0 0
60 15 2 0.3331 20.256212339337303 0.2715688199014339 44.13750511915801 0 0 -1
61 16 1 -0.9993 22.72064054885067 2.349346522854966 0.12288768968853563 0 0 0
62 16 2 0.3331 22.949986200001618 2.696985779514848 44.19879136379652 0 0 -1
63 16 2 0.3331 22.448883392678688 3.1603265258163518 0.6668191494020443 0 0 0
64 16 2 0.3331 21.880489858469026 1.7933411718138343 0.011501797112895097 0 0 0
65 17 1 -0.9993 27.786228968197857 44.971197278451804 2.438979616145046 0 -1 0
66 17 2 0.3331 27.26840634620173 0.4163691448859026 1.6899213797677732 0 0 0
67 17 2 0.3331 27.61622561116779 0.5307143457872647 3.266893536766525 0 0 0
68 17 2 0.3331 27.329139074432625 44.08171923087503 2.604205467320656 0 -1 0
69 18 1 -0.9993 29.809831873337107 0.18220533731668292 0.1308335006977943 0 0 0
70 18 2 0.3331 29.358632017810656 44.371760437191234 44.72217196074871 0 -1 -1
71 18 2 0.3331 30.50875420100262 44.8202833192681 0.7695212043075194 0 -1 0
72 18 2 0.3331 30.322781907849617 0.6257509062239847 44.37747333424598 0 0 -1
73 19 1 -0.9993 32.28405416294117 2.360914249648009 44.8568125153654 0 0 -1
74 19 2 0.3331 32.77098203181104 1.759817853101118 0.5117864633787433 0 0 0
75 19 2 0.3331 31.95070496072995 3.1508483987718297 0.3974457546627722 0 0 0
76 19 2 0.3331 32.99425884451784 2.7284194984790435 44.233955266593085 0 0 -1
77 20 1 -0.9993 32.214959605664795 0.05336622982974998 2.548827506192588 0 0 0
78 20 2 0.3331 32.73308445688962 44.87876055135477 3.4023297004414026 0 -1 0
79 20 2 0.3331 32.68523129593081 0.8249390790383466 2.089565243755897 0 0 0
80 20 2 0.3331 32.36672464151478 44.242934139777134 1.9592775496101122 0 -1 0
81 21 1 -0.9993 29.771936634605026 2.478893698302331 2.6844498079244494 0 0 0
82 21 2 0.3331 30.47808006161089 3.1306667561553487 3.006877848816278 0 0 0
83 21 2 0.3331 29.500889593006878 2.7953809600701764 1.760452370493164 0 0 0
84 21 2 0.3331 30.249093710777206 1.5950585854721435 2.548219972766109 0 0 0
85 22 1 -0.9993 35.16167522019783 44.82057584412489 0.1677742581938211 0 -1 0
86 22 2 0.3331 35.47558871763929 0.7835258745578968 0.2076748222642777 0 0 0
87 22 2 0.3331 34.184476329776324 44.834059525580955 0.4366654423062228 0 -1 0
88 22 2 0.3331 35.17825973238656 44.561838755736254 44.18788547723568 0 -1 -1
89 23 1 -0.9993 37.55731866793581 2.740555492624405 0.1591468866308546 0 0 0
90 23 2 0.3331 36.77698841128807 2.8668095460929646 44.524677734864724 0 0 -1
91 23 2 0.3331 37.32417246017783 1.9376770374827248 0.7322358693179927 0 0 0
92 23 2 0.3331 38.34152046059829 2.4549579237999057 44.58393950918643 0 0 -1
93 24 1 -0.9993 37.35566603341142 0.1365619564608216 2.71679170737461 0 0 0
94 24 2 0.3331 38.26795012320108 0.5404178265818111 2.5377814403912238 0 0 0
95 24 2 0.3331 36.85834337806709 0.16788805322833422 1.8341305027538457 0 0 0
96 24 2 0.3331 37.51804046532041 44.155132163729036 2.9112963494803203 0 -1 0
97 25 1 -0.9993 34.86873168035466 2.240420493652078 2.54321127620953 0 0 0
98 25 2 0.3331 34.56441957151187 2.9482448254133224 3.201835111018449 0 0 0
99 25 2 0.3331 34.68983314814711 2.6215639574174325 1.6211879981937654 0 0 0
100 25 2 0.3331 35.877015599986365 2.1897707235171673 2.6337656145782558 0 0 0
101 26 1 -0.9993 40.14298320400653 0.16466713422862098 0.19728315824458628 0 0 0
102 26 2 0.3331 40.43498149140433 0.35181442895801485 44.24485500335193 0 0 -1
103 26 2 0.3331 39.14038835026077 0.31248555993690574 0.21613049926725825 0 0 0
104 26 2 0.3331 40.281646954328366 44.17103287687646 0.34173133913622267 0 -1 0
105 27 1 -0.9993 42.57034949729466 2.583853487748731 0.2729462347656818 0 0 0
106 27 2 0.3331 43.37828257465456 2.3061318503549697 44.72749107196027 0 0 -1
107 27 2 0.3331 42.11422807810225 3.31748178927349 44.7427154207273 0 0 -1
108 27 2 0.3331 41.93713984994853 1.792532872622809 0.25684727254674355 0 0 0
109 28 1 -0.9993 40.27079916257581 2.54241658686652 2.3934694740610323 0 0 0
110 28 2 0.3331 39.89730035186267 1.6287823627074025 2.1628666925491156 0 0 0
111 28 2 0.3331 39.60049528781256 3.2154973097728305 2.0398354740988047 0 0 0
112 28 2 0.3331 40.23140519774896 2.613303740653247 3.4038283592910474 0 0 0
113 29 1 -0.9993 44.97030526439631 5.046818319610611 0.2888016168172638 -1 0 0
114 29 2 0.3331 0.9288537564406034 4.8581866455895675 0.01859913726603682 0 0 0
115 29 2 0.3331 44.67360487486109 5.839163864771463 44.73062658520675 -1 0 -1
116 29 2 0.3331 44.427236104302 4.255831170028358 44.961972660709954 -1 0 -1
117 30 1 -0.9993 2.7212609213360843 7.5456690423240715 44.8117500344948 0 0 -1
118 30 2 0.3331 3.020018651967489 7.085052543689685 0.6637962536482973 0 0 0
119 30 2 0.3331 1.9885870266980779 6.963776618179054 44.42188836564467 0 0 -1
120 30 2 0.3331 2.270133399998349 8.40550179580719 0.10256534621223759 0 0 0
121 31 1 -0.9993 0.029551865426347752 7.536361412879482 2.7903181722752315 0 0 0
122 31 2 0.3331 0.9199276672013438 7.459592934038334 2.3120462493381337 0 0 0
123 31 2 0.3331 44.53968139753818 8.304937561996706 2.346787364214318 -1 0 0
124 31 2 0.3331 44.51083906983413 6.6991080910854786 2.5508482141723166 -1 0 0
125 32 1 -0.9993 4.990559028495919 4.990741228634479 0.2937775509800913 0 0 0
126 32 2 0.3331 5.937000147635121 5.027132885632351 44.932763208739395 0 0 -1
127 32 2 0.3331 4.5145782398547105 5.79989360112767 44.91152543923559 0 0 -1
128 32 2 0.3331 4.5578625840142495 4.182232284605499 44.86193380104493 0 0 -1
129 33 1 -0.9993 7.437399965375867 7.787282752066872 0.005473781137540087 0 0 0
130 33 2 0.3331 6.859082697730268 7.272274537332474 44.35146905890763 0 0 -1
131 33 2 0.3331 7.306720603550377 7.340323307590076 0.9057804563243211 0 0 0
132 33 2 0.3331 8.39679673334349 7.600119403010579 44.737276703630506 0 0 -1
133 34 1 -0.9993 7.214221011652576 4.934810975847347 2.476317365029466 0 0 0
134 34 2 0.3331 7.771169084418594 4.533287568972524 1.7306671132533042 0 0 0
135 34 2 0.3331 7.622456168724445 4.599527058580448 3.3413784619195463 0 0 0
136 34 2 0.3331 7.392153735204385 5.932374396599681 2.4516370597976835 0 0 0
137 35 1 -0.9993 4.950872148988252 7.646964176853547 2.749936174306016 0 0 0
138 35 2 0.3331 5.265938555147942 6.696807272827728 2.9091263669740597 0 0 0
139 35 2 0.3331 5.659897630491264 8.083064373704344 2.1715751841916076 0 0 0
140 35 2 0.3331 4.123291665372542 7.573164176614382 2.169362274528317 0 0 0
141 36 1 -0.9993 9.945758853001609 4.991699127384227 0.2889101932021706 0 0 0
142 36 2 0.3331 10.936150346599774 5.030867731291953 0.07678520675240681 0 0 0
143 36 2 0.3331 9.530903705450793 5.797527989026393 44.835107370056384 0 0 -1
144 36 2 0.3331 9.587187094947824 4.179905152297426 44.79919722998903 0 0 -1
145 37 1 -0.9993 12.323291003341938 7.26987126007062 0.04790406881066357 0 0 0
146 37 2 0.3331 12.295726198126912 7.948764475109389 0.8000680696028991 0 0 0
147 37 2 0.3331 12.084928116192726 7.778240415698986 44.20401670331951 0 0 -1
148 37 2 0.3331 13.296054682338424 7.003123849121005 44.94801115826692 0 0 -1
149 38 1 -0.9993 12.270927909246542 4.957768964806606 2.3204933896639632 0 0 0
150 38 2 0.3331 12.638170516633856 4.091758261585316 2.698070970070338 0 0 0
151 38 2 0.3331 12.040657977649252 5.53581739528122 3.12064195126238 0 0 0
152 38 2 0.3331 13.050243596470349 5.4146553783268585 1.860793689003319 0 0 0
153 39 1 -0.9993 9.70964002087309 7.473926579515415 2.5386182018697743 0 0 0
154 39 2 0.3331 10.244955592386214 6.9848342095937035 3.2468783183382515 0 0 0
155 39 2 0.3331 10.023942392454902 8.437167396016857 2.566602101592367 0 0 0
156 39 2 0.3331 10.021461994285792 7.104071814874025 1.6479013781996077 0 0 0
157 40 1 -0.9993 14.738411790193542 5.134310975412563 44.99649619863891 0 0 -1
158 40 2 0.3331 14.766635173536587 4.315047130518824 44.40032785573348 0 0 -1
159 40 2 0.3331 15.003201497366568 4.815737507950161 0.921590413734971 0 0 0
160 40 2 0.3331 15.491751538903305 5.734904386118452 44.681585531892644 0 0 -1
161 41 1 -0.9993 17.55893467974238 7.450150651821725 0.28376372611710676 0 0 0
162 41 2 0.3331 18.373393446019495 7.751722179532073 44.76115676892193 0 0 -1
163 41 2 0.3331 16.85853265558416 8.170428573778606 0.14945561133417576 0 0 0
164 41 2 0.3331 17.209139218653966 6.627698594867597 44.80562389362679 0 0 -1
165 42 1 -0.9993 17.3372951906416 4.796832016357702 2.6368576694393466 0 0 0
166 42 2 0.3331 18.089991300606673 5.151589143538224 3.2156516282520373 0 0 0
167 42 2 0.3331 16.79704494058347 5.606520966777078 2.354129140845402 0 0 0
168 42 2 0.3331 17.775668568168257 4.445057873326997 1.7933615614632137 0 0 0
169 43 1 -0.9993 15.068956205603914 7.653481106643889 2.7411818771427034 0 0 0
170 43 2 0.3331 15.833575927108601 7.600873399130889 2.077860227717386 0 0 0
171 43 2 0.3331 14.286267461817861 8.050648101621437 2.23417235213246 0 0 0
172 43 2 0.3331 14.811200405469624 6.694997392603786 2.9467855430074503 0 0 0
173 44 1 -0.9993 19.851271841435405 4.789589860586577 0.14173078117335258 0 0 0
174 44 2 0.3331 20.613042199845562 5.169774445646001 0.6917963248414294 0 0 0
175 44 2 0.3331 19.268283376872198 5.579231250584844 44.88876265000297 0 0 -1
176 44 2 0.3331 20.267402581846838 4.461404443182578 44.277710243982256 0 0 -1
177 45 1 -0.9993 22.731539367860215 7.644508584099824 44.89051531384547 0 0 -1
178 45 2 0.3331 22.035291750503927 7.42843073743884 44.18627379312404 0 0 -1
179 45 2 0.3331 22.247190200132554 8.168260847949362 0.6105787831549522 0 0 0
180 45 2 0.3331 22.9859786815033 6.758799830511974 0.312632109875542 0 0 0
181 46 1 -0.9993 25.167396975359274 5.219666672051364 0.1010193648784482 0 0 0
182 46 2 0.3331 25.370966206572007 4.9829893254843 44.13668026387433 0 0 -1
183 46 2 0.3331 24.177360466933756 5.434658699397902 0.1327698004979803 0 0 0
184 46 2 0.3331 25.284276351134967 4.362685303066434 0.6295305707492421 0 0 0
185 47 1 -0.9993 27.549034594843015 7.777342254334327 44.91540101230313 0 0 -1
186 47 2 0.3331 28.198863153555447 7.119814985712911 44.49972417231685 0 0 -1
187 47 2 0.3331 26.62269919756798 7.449543161665902 44.6666995113003 0 0 -1
188 47 2 0.3331 27.62940305403356 7.65329959828686 0.9181753040797136 0 0 0
189 48 1 -0.9993 27.454592544569905 5.167118629085888 2.73767547844449 0 0 0
190 48 2 0.3331 28.36760808096521 5.314871147228725 2.3229727853217574 0 0 0
191 48 2 0.3331 26.781365971572697 5.342640582163617 2.0005459271455237 0 0 0
192 48 2 0.3331 27.396433402892193 4.175369641521771 2.9388058090882287 0 0 0
193 49 1 -0.9993 32.66067251995289 7.731224056005865 0.08485212729322401 0 0 0
194 49 2 0.3331 32.77309464128661 7.515409140284497 44.100884806297756 0 0 -1
195 49 2 0.3331 31.66698530668032 7.870389707313332 0.22845085178188168 0 0 0
196 49 2 0.3331 32.899247532080174 6.882977096396307 0.5858122146271414 0 0 0
197 50 1 -0.9993 32.46488546417608 5.036934967241959 2.2103745801579118 0 0 0
198 50 2 0.3331 32.67149041417362 4.076797383023972 2.461086993110606 0 0 0
199 50 2 0.3331 31.640106151555507 5.2928317531780555 2.7410890706522952 0 0 0
200 50 2 0.3331 33.2235179700948 5.593435896556014 2.5874493560791874 0 0 0
201 51 1 -0.9993 30.049046950240022 7.444868246299367 2.784666458607342 0 0 0
202 51 2 0.3331 30.89148073621627 7.389772169724668 2.223706354329152 0 0 0
203 51 2 0.3331 29.66701000165157 8.369985197369198 2.624640377119091 0 0 0
204 51 2 0.3331 29.39246231189214 6.795374386606766 2.3669868099444145 0 0 0
205 52 1 -0.9993 35.071075763256744 4.9258867527233265 0.2755640918290658 0 0 0
206 52 2 0.3331 35.86363083601734 5.268825848787184 44.74485161502798 0 0 -1
207 52 2 0.3331 34.37016811657711 5.6569476045198845 0.2345707777826572 0 0 0
208 52 2 0.3331 34.6951252841488 4.148339793969605 44.74501351536029 0 0 -1
209 53 1 -0.9993 37.603718144964205 4.888103467619603 2.751399718966483 0 0 0
210 53 2 0.3331 38.23846284183585 4.756465113149561 1.972184079091519 0 0 0
211 53 2 0.3331 37.43316354804593 5.885701601284829 2.8071764450957803 0 0 0
212 53 2 0.3331 36.72465546515401 4.469729817946006 2.4692397568462177 0 0 0
213 54 1 -0.9993 35.18569566184432 7.699192651334176 2.6109933109545818 0 0 0
214 54 2 0.3331 35.651257226665194 7.007076395705138 2.0351165723589166 0 0 0
215 54 2 0.3331 34.46993280523336 8.113995865203252 2.0253109936015585 0 0 0
216 54 2 0.3331 34.69311430625712 7.179735087757434 3.328579123084943 0 0 0
217 55 1 -0.9993 42.51161511649504 7.522543879935043 0.29297946821625775 0 0 0
218 55 2 0.3331 43.427980777143894 7.551840207226413 44.860750129565105 0 0 -1
219 55 2 0.3331 41.976225936513025 8.26828675206734 44.863295928128835 0 0 -1
220 55 2 0.3331 42.08417816984805 6.657329160771204 44.98297447408981 0 0 -1
221 56 1 -0.9993 42.257047036383774 5.075453039632845 2.647515431498734 0 0 0
222 56 2 0.3331 42.781347587304936 5.878163989293463 2.318622495121691 0 0 0
223 56 2 0.3331 42.05897935484098 4.5156428906193256 1.8260632170700903 0 0 0
224 56 2 0.3331 42.90262602147031 4.5307400804543665 3.207798856309485 0 0 0
225 57 1 -0.9993 40.00723324535803 7.516769823276145 2.7935073413713485 0 0 0
226 57 2 0.3331 40.931923022869235 7.483652771369505 2.379673345378645 0 0 0
227 57 2 0.3331 39.5386097956371 8.307917755487912 2.3670346438528527 0 0 0
228 57 2 0.3331 39.52223393613563 6.691659649866437 2.4597846693971532 0 0 0
229 58 1 -0.9993 44.817827030320174 10.102839649774069 0.20668120815008612 -1 0 0
230 58 2 0.3331 0.7693836030482726 10.431866588701988 0.3236763463297349 0 0 0
231 58 2 0.3331 44.5415509654596 10.37462917697284 44.270089547451455 -1 0 -1
232 58 2 0.3331 44.87123840117196 9.090664584551103 0.19955289806872628 -1 0 0
233 59 1 -0.9993 2.3599334187243426 10.096663987519628 2.7398281313285726 0 0 0
234 59 2 0.3331 3.3684033376215416 10.11692775863407 2.8397496118004835 0 0 0
235 59 2 0.3331 2.1499651799844317 10.646726408306131 1.9147544243429782 0 0 0
236 59 2 0.3331 2.121698063669684 9.139681845540169 2.505667832527966 0 0 0
237 60 1 -0.9993 5.035565893596423 10.158417818211745 0.24519169711823138 0 0 0
238 60 2 0.3331 4.168403753305288 10.36907425362697 44.764504492520636 0 0 -1
239 60 2 0.3331 5.021627862183612 9.160411038003852 0.42179902408800996 0 0 0
240 60 2 0.3331 5.774402490914676 10.312096890157433 44.568504786273124 0 0 -1
241 61 1 -0.9993 7.5677253005108405 12.339085033610198 0.23664269165238402 0 0 0
242 61 2 0.3331 8.274097542034331 12.286816296240351 44.51158218693651 0 0 -1
243 61 2 0.3331 7.459132175577144 13.323967671931758 0.4502209488554505 0 0 0
244 61 2 0.3331 6.699044981877683 12.050130998217693 44.801554172555655 0 0 -1
245 62 1 -0.9993 7.328066955683796 9.76990467526475 2.4369502096978755 0 0 0
246 62 2 0.3331 8.311279158420986 9.579191628618377 2.2809732940098826 0 0 0
247 62 2 0.3331 7.250612486199807 10.063899557048039 3.4038885555308367 0 0 0
248 62 2 0.3331 7.110041399695411 10.587004139068835 1.8781879407614053 0 0 0
249 63 1 -0.9993 5.060764966205627 12.489694050591389 2.787543931493635 0 0 0
250 63 2 0.3331 5.72757075472288 13.046699890456452 2.2655084587946033 0 0 0
251 63 2 0.3331 4.149976980527634 12.889910444827665 2.5933944197014664 0 0 0
252 63 2 0.3331 5.06168729854386 11.573695614124492 2.3535531900102953 0 0 0
253 64 1 -0.9993 10.143291767271407 10.19796355544796 44.83642125322451 0 0 -1
254 64 2 0.3331 10.49887940092911 9.256718889267296 44.71385529883192 0 0 -1
255 64 2 0.3331 9.15400331119775 10.153075733107082 44.62033010559256 0 0 -1
256 64 2 0.3331 10.203825520601733 10.392241822177663 0.82939334235101 0 0 0
257 65 1 -0.9993 12.659951932239428 12.64536911028771 0.1994073905276159 0 0 0
258 65 2 0.3331 12.765545928472685 13.019757522375167 44.26341074264146 0 0 -1
259 65 2 0.3331 11.666654411388327 12.670375714270566 0.39974873630601987 0 0 0
260 65 2 0.3331 12.90784772789956 11.664497653066556 0.13743313052490558 0 0 0
261 66 1 -0.9993 12.571854990328607 9.818372939209707 2.7198376159886095 0 0 0
262 66 2 0.3331 13.374029417386602 10.107214515700182 2.171664986003605 0 0 0
263 66 2 0.3331 12.133272538163187 10.672576314985923 3.0444665972350236 0 0 0
264 66 2 0.3331 11.920843054121605 9.401836230104188 2.0640308007727626 0 0 0
265 67 1 -0.9993 9.829336408531375 12.596990260741434 2.7189678837600146 0 0 0
266 67 2 0.3331 10.610041469598032 12.040172694672396 3.0473888114456016 0 0 0
267 67 2 0.3331 10.2332070220392 13.349955774106713 2.173685009255987 0 0 0
268 67 2 0.3331 9.32741509983139 12.012881270479456 2.0599582955383973 0 0 0
269 68 1 -0.9993 14.738305836471786 10.071177421673802 0.11371035867122528 0 0 0
270 68 2 0.3331 15.170361625055225 10.839302188745139 44.612992236607376 0 0 -1
271 68 2 0.3331 14.683465740176992 9.303538366959454 44.45407046030573 0 0 -1
272 68 2 0.3331 15.407866798295997 9.785982022621603 0.8192269444156688 0 0 0
273 69 1 -0.9993 17.475470147212874 12.653207462158825 44.75018833872076 0 0 -1
274 69 2 0.3331 18.066974651280443 13.110785684714543 0.43440401517850363 0 0 0
275 69 2 0.3331 17.874155934879212 11.732249515707037 44.607752200117595 0 0 -1
276 69 2 0.3331 16.58339926662747 12.503757337419593 0.20765544598314073 0 0 0
277 70 1 -0.9993 17.606872419276247 9.776448216917883 2.6583761109790496 0 0 0
278 70 2 0.3331 17.083138742377717 9.467451716845542 1.8474317857474145 0 0 0
279 70 2 0.3331 18.33303520901112 10.389007853968886 2.305020420688928 0 0 0
280 70 2 0.3331 16.97695362933492 10.36709221226769 3.189171682584608 0 0 0
281 71 1 -0.9993 14.753114472970502 12.657277247094976 2.4718662064486057 0 0 0
282 71 2 0.3331 14.583902497620775 11.657894000570508 2.469232964253471 0 0 0
283 71 2 0.3331 15.24746569437282 12.854520162073198 3.3344866631901136 0 0 0
284 71 2 0.3331 15.415517335035902 12.830308590261316 1.72441416610781 0 0 0
285 72 1 -0.9993 20.220025983576328 9.93815287949389 44.8149497190319 0 0 -1
286 72 2 0.3331 19.309960665630957 9.70627048703355 44.433612370821876 0 0 -1
287 72 2 0.3331 20.178091523523843 10.920875624934007 0.05969337401552631 0 0 0
288 72 2 0.3331 20.291921827268872 9.434701008538553 0.6917445361306968 0 0 0
289 73 1 -0.9993 22.735798727851616 9.885605419515052 2.6333902025983598 0 0 0
290 73 2 0.3331 21.872356747560517 9.42810118777209 2.902767864271088 0 0 0
291 73 2 0.3331 22.784897776950306 9.816873784250735 1.6233074358453092 0 0 0
292 73 2 0.3331 22.606946747637558 10.869419608462126 2.840534497285243 0 0 0
293 74 1 -0.9993 20.2231174955164 12.691103151238769 2.4866480326879996 0 0 0
294 74 2 0.3331 20.140274892595393 12.125829136073913 1.6493852955972623 0 0 0
295 74 2 0.3331 19.324846944270025 13.144962084902275 2.607163737462753 0 0 0
296 74 2 0.3331 20.311760667618184 12.038105627785042 3.256802934251985 0 0 0
297 75 1 -0.9993 24.759871071643776 9.88181399550958 0.12186169356726496 0 0 0
298 75 2 0.3331 25.175094489240426 10.606356775137682 0.6963473539349924 0 0 0
299 75 2 0.3331 24.572519472755506 10.311217048904048 44.22302113700035 0 0 -1
300 75 2 0.3331 25.492514966360293 9.200612180448688 44.95876981549739 0 0 -1
301 76 1 -0.9993 27.56956696121697 12.35428727144313 0.24578109140767593 0 0 0
302 76 2 0.3331 28.319591082130675 12.353807756571166 44.56396726922957 0 0 -1
303 76 2 0.3331 27.348361988183726 13.328551571468825 0.41689328735174824 0 0 0
304 76 2 0.3331 26.76247996846863 11.96335340051688 44.773358352011 0 0 -1
305 77 1 -0.9993 27.587801131687407 9.92136672648818 2.769421372242861 0 0 0
306 77 2 0.3331 27.37738748425757 10.91036285481388 2.6985746706114306 0 0 0
307 77 2 0.3331 26.74906751902227 9.435496780065119 2.473012411264048 0 0 0
308 77 2 0.3331 28.285743865032753 9.732773638632821 2.0589915458816606 0 0 0
309 78 1 -0.9993 25.140085173525204 12.702258587223733 2.338917057691783 0 0 0
310 78 2 0.3331 25.60160273028171 11.799948393086568 2.323285091671606 0 0 0
311 78 2 0.3331 24.191781761826434 12.536398347927554 2.0217215810829843 0 0 0
312 78 2 0.3331 25.06653033436665 12.961394671762145 3.316076269553627 0 0 0
313 79 1 -0.9993 29.944143693921845 10.12855501928852 0.2585223130351259 0 0 0
314 79 2 0.3331 30.617773890230524 10.64262698235618 44.702321921621305 0 0 -1
315 79 2 0.3331 29.117055872216397 10.035799145524914 44.67996891613136 0 0 -1
316 79 2 0.3331 30.321026543631234 9.193018852830386 0.3591868492122131 0 0 0
317 80 1 -0.9993 32.24963489906557 12.621617338241757 0.09490334832386417 0 0 0
318 80 2 0.3331 32.362253559693876 11.663191785779256 0.40497430417951386 0 0 0
319 80 2 0.3331 33.07299700251996 13.117704402571771 0.41642227653739533 0 0 0
320 80 2 0.3331 32.31511453872059 12.597486473407214 44.083700070959225 0 0 -1
321 81 1 -0.9993 32.51228990416169 9.966919543402838 2.7919499064857183 0 0 0
322 81 2 0.3331 33.22258756125218 9.431161439338817 2.3063091006822067 0 0 0
323 81 2 0.3331 32.640533650494376 10.929269410388738 2.500679885648038 0 0 0
324 81 2 0.3331 31.62458888409175 9.672649606869607 2.401061107184037 0 0 0
325 82 1 -0.9993 30.022274001241115 12.7913793387785 2.5328946204069114 0 0 0
326 82 2 0.3331 29.06637072884915 12.48436802116952 2.393612587501264 0 0 0
327 82 2 0.3331 30.365896194971857 12.278656784169952 3.3369103665035644 0 0 0
328 82 2 0.3331 30.545459074937877 12.44559585588203 1.73658242558826 0 0 0
329 83 1 -0.9993 34.846312145857894 10.197190257335034 44.84515765388196 0 0 -1
330 83 2 0.3331 35.776960360256666 10.045611820831162 44.47323779877416 0 0 -1
331 83 2 0.3331 34.40324812498891 9.285855707434589 44.868939192292295 0 0 -1
332 83 2 0.3331 34.97347936889653 10.471342214399215 0.812665355051585 0 0 0
333 84 1 -0.9993 37.631521725018864 12.592133163630036 0.24636075632613041 0 0 0
334 84 2 0.3331 38.16828422205993 11.88603134883914 44.755735900739666 0 0 -1
335 84 2 0.3331 37.479289060281815 13.340413067295668 44.57979916760592 0 0 -1
336 84 2 0.3331 36.72090499263939 12.181422420235156 0.4181041753282816 0 0 0
337 85 1 -0.9993 37.53337436916772 10.037425362340915 2.7897681831849526 0 0 0
338 85 2 0.3331 38.41705817188001 10.00233610828761 2.294512510755123 0 0 0
339 85 2 0.3331 37.0001408670162 10.782934433971059 2.3570093516166195 0 0 0
340 85 2 0.3331 37.049426591936076 9.177304095400416 2.5587099544433047 0 0 0
341 86 1 -0.9993 34.93122542780815 12.551296631078353 2.7812806785220765 0 0 0
342 86 2 0.3331 35.29606930049662 13.371662410268573 2.310860189071095 0 0 0
343 86 2 0.3331 34.1356903156398 12.245475245666373 2.2326468156116834 0 0 0
344 86 2 0.3331 35.63701495605543 11.8315657129867 2.675212316795145 0 0 0
345 87 1 -0.9993 39.77701818286398 10.089478970663796 0.16956629761149047 0 0 0
346 87 2 0.3331 39.53793403559149 9.286864495974404 44.59855379727367 0 0 -1
347 87 2 0.3331 40.59286662429925 9.817443838782784 0.7060270675007042 0 0 0
348 87 2 0.3331 40.09218115724527 10.806212694579017 44.52585283761414 0 0 -1
349 88 1 -0.9993 42.232341952013805 12.421355857851475 44.90697110930499 0 0 -1
350 88 2 0.3331 42.2037431771073 13.00782515471396 0.7331928555157008 0 0 0
351 88 2 0.3331 42.75127255913106 12.944541768026383 44.21099016244555 0 0 -1
352 88 2 0.3331 42.81264231174783 11.626277219408182 0.14884587273375904 0 0 0
353 89 1 -0.9993 42.34132009092044 9.905023791961549 2.728648884998682 0 0 0
354 89 2 0.3331 43.2080087452666 9.392354809203624 2.6127705412687368 0 0 0
355 89 2 0.3331 42.60297825036075 10.880782648832465 2.811302444125174 0 0 0
356 89 2 0.3331 41.84769291345221 9.821838750002362 1.8472781296074072 0 0 0
357 90 1 -0.9993 39.94369261536638 12.752383317269663 2.6400437283482647 0 0 0
358 90 2 0.3331 39.447224978728485 11.963586817323051 3.03844863223771 0 0 0
359 90 2 0.3331 40.92600943149248 12.503317651677778 2.6605843461372176 0 0 0
360 90 2 0.3331 39.68307297441265 12.780712213729508 1.6609232932768077 0 0 0
361 91 1 -0.9993 0.10577522406083908 15.158782364585672 0.2237853188246755 0 0 0
362 91 2 0.3331 0.8364249359618812 14.729493325889585 44.667666249061455 0 0 -1
363 91 2 0.3331 44.5517736821289 15.710655941097055 44.578866876627856 -1 0 -1
364 91 2 0.3331 44.506026157848375 14.401068368427687 0.5296815554860189 -1 0 0
365 92 1 -0.9993 2.3270515937136826 17.71866336679033 0.09356969080284377 0 0 0
366 92 2 0.3331 1.8049455855562437 16.95756976158713 44.67458479803856 0 0 -1
367 92 2 0.3331 2.873917113392277 17.304593884405357 0.8398179853698063 0 0 0
368 92 2 0.3331 2.9940857073377964 18.019172987217182 44.39202752578879 0 0 -1
369 93 1 -0.9993 2.4315767807606865 15.233535810646666 2.3348958072472605 0 0 0
370 93 2 0.3331 1.701274535858185 14.992530778652867 2.9951849148690917 0 0 0
371 93 2 0.3331 3.2705253640559886 15.37513414764641 2.8858196999454373 0 0 0
372 93 2 0.3331 2.59662331932514 14.398799263054059 1.7840995779382105 0 0 0
373 94 1 -0.9993 44.83413788134599 17.45068625210131 2.7377772447350375 -1 0 0
374 94 2 0.3331 0.34012913344967116 18.327556472362804 2.7875564533777757 0 0 0
375 94 2 0.3331 44.29158136089936 17.48953093176948 1.882484626397707 -1 0 0
376 94 2 0.3331 0.5341516243049853 16.732226343766406 2.59218167548948 0 0 0
377 95 1 -0.9993 7.579108507306341 17.430179465936995 0.27449415903607016 0 0 0
378 95 2 0.3331 8.3625711890834 17.441735064503558 44.63148623186529 0 0 -1
379 95 2 0.3331 7.152039736063287 18.3472170371999 0.21080501144260702 0 0 0
380 95 2 0.3331 6.906280567546972 16.780868432359547 44.883214597656035 0 0 -1
381 96 1 -0.9993 7.422338817645816 14.97562838477634 2.7825860424308675 0 0 0